 Entering Gaussian System, Link 0=g16
 Input=02-PbCl2_acn_22802169.com
 Output=02-PbCl2_acn_22802169.log
 Initial command:
 /cm/shared/uniol/software/gaussian/g16.c01/g16/l1.exe "/scratch/22802169_edba4025/Gau-16654.inp" -scrdir="/scratch/22802169_edba4025/"
 Entering Link 1 = /cm/shared/uniol/software/gaussian/g16.c01/g16/l1.exe PID=     16655.
  
 Copyright (c) 1988-2019, Gaussian, Inc.  All Rights Reserved.
  
 This is part of the Gaussian(R) 16 program.  It is based on
 the Gaussian(R) 09 system (copyright 2009, Gaussian, Inc.),
 the Gaussian(R) 03 system (copyright 2003, Gaussian, Inc.),
 the Gaussian(R) 98 system (copyright 1998, Gaussian, Inc.),
 the Gaussian(R) 94 system (copyright 1995, Gaussian, Inc.),
 the Gaussian 92(TM) system (copyright 1992, Gaussian, Inc.),
 the Gaussian 90(TM) system (copyright 1990, Gaussian, Inc.),
 the Gaussian 88(TM) system (copyright 1988, Gaussian, Inc.),
 the Gaussian 86(TM) system (copyright 1986, Carnegie Mellon
 University), and the Gaussian 82(TM) system (copyright 1983,
 Carnegie Mellon University). Gaussian is a federally registered
 trademark of Gaussian, Inc.
  
 This software contains proprietary and confidential information,
 including trade secrets, belonging to Gaussian, Inc.
  
 This software is provided under written license and may be
 used, copied, transmitted, or stored only in accord with that
 written license.
  
 The following legend is applicable only to US Government
 contracts under FAR:
  
                    RESTRICTED RIGHTS LEGEND
  
 Use, reproduction and disclosure by the US Government is
 subject to restrictions as set forth in subparagraphs (a)
 and (c) of the Commercial Computer Software - Restricted
 Rights clause in FAR 52.227-19.
  
 Gaussian, Inc.
 340 Quinnipiac St., Bldg. 40, Wallingford CT 06492
  
  
 ---------------------------------------------------------------
 Warning -- This program may not be used in any manner that
 competes with the business of Gaussian, Inc. or will provide
 assistance to any competitor of Gaussian, Inc.  The licensee
 of this program is prohibited from giving any competitor of
 Gaussian, Inc. access to this program.  By using this program,
 the user acknowledges that Gaussian, Inc. is engaged in the
 business of creating and licensing software in the field of
 computational chemistry and represents and warrants to the
 licensee that it is not a competitor of Gaussian, Inc. and that
 it will not use this program in any manner prohibited above.
 ---------------------------------------------------------------
  

 Cite this work as:
 Gaussian 16, Revision C.01,
 M. J. Frisch, G. W. Trucks, H. B. Schlegel, G. E. Scuseria, 
 M. A. Robb, J. R. Cheeseman, G. Scalmani, V. Barone, 
 G. A. Petersson, H. Nakatsuji, X. Li, M. Caricato, A. V. Marenich, 
 J. Bloino, B. G. Janesko, R. Gomperts, B. Mennucci, H. P. Hratchian, 
 J. V. Ortiz, A. F. Izmaylov, J. L. Sonnenberg, D. Williams-Young, 
 F. Ding, F. Lipparini, F. Egidi, J. Goings, B. Peng, A. Petrone, 
 T. Henderson, D. Ranasinghe, V. G. Zakrzewski, J. Gao, N. Rega, 
 G. Zheng, W. Liang, M. Hada, M. Ehara, K. Toyota, R. Fukuda, 
 J. Hasegawa, M. Ishida, T. Nakajima, Y. Honda, O. Kitao, H. Nakai, 
 T. Vreven, K. Throssell, J. A. Montgomery, Jr., J. E. Peralta, 
 F. Ogliaro, M. J. Bearpark, J. J. Heyd, E. N. Brothers, K. N. Kudin, 
 V. N. Staroverov, T. A. Keith, R. Kobayashi, J. Normand, 
 K. Raghavachari, A. P. Rendell, J. C. Burant, S. S. Iyengar, 
 J. Tomasi, M. Cossi, J. M. Millam, M. Klene, C. Adamo, R. Cammi, 
 J. W. Ochterski, R. L. Martin, K. Morokuma, O. Farkas, 
 J. B. Foresman, and D. J. Fox, Gaussian, Inc., Wallingford CT, 2019.
 
 ******************************************
 Gaussian 16:  ES64L-G16RevC.01  3-Jul-2019
                11-Nov-2020 
 ******************************************
 %oldChk=01-PbCl2_acn
 %chk=02-PbCl2_acn
 %mem=16GB
 %NProcShared=5
 Will use up to    5 processors via shared memory.
 Copying data from "01-PbCl2_acn.chk" to current chk file "02-PbCl2_acn.chk"
 IOpt=  2 FromEx=T IUOpen= 4 IOptOp= 5 NList=   0 IFRang= 0 IUIn= 4 IUOut= 2.
 ----------------------------------------------------------------------
 # cam-b3lyp/gen pseudo=read TD=NStates=10 Geom=Check Guess=Read empiri
 caldispersion=gd3bj SCRF=(Solvent=CH3CN)
 ----------------------------------------------------------------------
 1/29=2,38=1,172=1/1;
 2/12=2,40=1/2;
 3/5=7,11=9,14=-4,16=1,17=8,25=1,30=1,70=2201,72=2,74=-40,116=-2,124=41/1,2,3,8;
 4/5=1/1;
 5/5=2,38=6,53=2/2;
 8/6=1,10=1,108=10/1;
 9/41=10,42=1,70=2/14;
 6/7=2,8=2,9=2,10=2/1;
 99/5=1,9=1/99;
 ---------
 PbCl2_acn
 ---------
 Structure from the checkpoint file:  "02-PbCl2_acn.chk"
 Charge =  0 Multiplicity = 1
 Redundant internal coordinates found in file.  (old form).
 Pb,0,-0.3745419278,-0.0094602269,-0.536626922
 Cl,0,-0.8632249215,-1.9694700651,1.211814452
 Cl,0,-1.0160382963,1.8967083369,1.2308960983
 C,0,1.9196217607,3.7360238746,0.0483784928
 H,0,2.9501591394,3.5360878882,0.3999948282
 H,0,1.8491051771,4.7850382129,-0.2975775372
 H,0,1.2022547669,3.5694800658,0.8787980002
 C,0,1.5707628333,2.8237376672,-1.0252675262
 N,0,1.2629000249,2.0604083771,-1.8655946032
 C,0,2.1946459757,-3.5831368671,0.0030811495
 H,0,3.2130287588,-3.3185453102,0.3477036471
 H,0,2.1913441331,-4.6307036563,-0.3542880739
 H,0,1.4755870661,-3.4746626736,0.8416276689
 C,0,1.7750913608,-2.6845729452,-1.0567360296
 N,0,1.4091758557,-1.9338319845,-1.8850398754
 C,0,-4.1514289853,-0.1047241989,1.4278976178
 H,0,-5.2403670772,0.0920050668,1.4339925986
 H,0,-3.9402648315,-1.0751812325,1.9168225009
 H,0,-3.6185157236,0.6984820204,1.9757225655
 C,0,-3.6432318961,-0.1335541126,0.0696791047
 N,0,-3.191897634,-0.1472329647,-1.0169394437
 C,0,4.0989167444,0.0481209525,2.059377055
 H,0,3.8890141274,0.1472276473,3.1416876159
 H,0,4.632814521,-0.9047363277,1.8773993311
 H,0,4.7373386435,0.8916181404,1.732924041
 C,0,2.8547948826,0.0593879593,1.3151272117
 N,0,1.8511555221,0.065986356,0.7119160321
 Recover connectivity data from disk.
                           ----------------------------
                           !    Current Parameters    !
                           ! (Angstroms and Degrees)  !
 --------------------------                            --------------------------
 ! Name  Definition              Value                                          !
 --------------------------------------------------------------------------------
 ! R1    R(1,2)                  2.6716                                         !
 ! R2    R(1,3)                  2.6775                                         !
 ! R3    R(1,9)                  2.9549                                         !
 ! R4    R(1,15)                 2.9501                                         !
 ! R5    R(1,21)                 2.8613                                         !
 ! R6    R(1,27)                 2.5531                                         !
 ! R7    R(2,13)                 2.8058                                         !
 ! R8    R(3,7)                  2.8005                                         !
 ! R9    R(3,19)                 2.9603                                         !
 ! R10   R(4,5)                  1.1071                                         !
 ! R11   R(4,6)                  1.1068                                         !
 ! R12   R(4,7)                  1.1099                                         !
 ! R13   R(4,8)                  1.4514                                         !
 ! R14   R(8,9)                  1.1763                                         !
 ! R15   R(10,11)                1.1072                                         !
 ! R16   R(10,12)                1.1069                                         !
 ! R17   R(10,13)                1.1099                                         !
 ! R18   R(10,14)                1.4514                                         !
 ! R19   R(14,15)                1.1763                                         !
 ! R20   R(16,17)                1.1066                                         !
 ! R21   R(16,18)                1.107                                          !
 ! R22   R(16,19)                1.1087                                         !
 ! R23   R(16,20)                1.4505                                         !
 ! R24   R(20,21)                1.1767                                         !
 ! R25   R(22,23)                1.1069                                         !
 ! R26   R(22,24)                1.1073                                         !
 ! R27   R(22,25)                1.1071                                         !
 ! R28   R(22,26)                1.4498                                         !
 ! R29   R(26,27)                1.171                                          !
 ! A1    A(2,1,3)               92.6619                                         !
 ! A2    A(2,1,9)              155.4495                                         !
 ! A3    A(2,1,15)              86.0531                                         !
 ! A4    A(2,1,21)              83.9399                                         !
 ! A5    A(2,1,27)              82.0154                                         !
 ! A6    A(3,1,9)               86.042                                          !
 ! A7    A(3,1,15)             155.6409                                         !
 ! A8    A(3,1,21)              84.7896                                         !
 ! A9    A(3,1,27)              82.2413                                         !
 ! A10   A(9,1,15)              85.1995                                         !
 ! A11   A(9,1,21)             120.2552                                         !
 ! A12   A(9,1,27)              73.5106                                         !
 ! A13   A(15,1,21)            119.157                                          !
 ! A14   A(15,1,27)             73.4833                                         !
 ! A15   A(21,1,27)            160.3702                                         !
 ! A16   A(1,2,13)              98.9022                                         !
 ! A17   A(1,3,7)               98.7695                                         !
 ! A18   A(1,3,19)              95.0808                                         !
 ! A19   A(5,4,6)              109.2531                                         !
 ! A20   A(5,4,7)              109.6887                                         !
 ! A21   A(5,4,8)              110.1917                                         !
 ! A22   A(6,4,7)              109.5655                                         !
 ! A23   A(6,4,8)              110.4374                                         !
 ! A24   A(7,4,8)              107.6844                                         !
 ! A25   A(3,7,4)              134.0778                                         !
 ! A26   A(1,9,8)              106.159                                          !
 ! A27   A(11,10,12)           109.2333                                         !
 ! A28   A(11,10,13)           109.7164                                         !
 ! A29   A(11,10,14)           110.1944                                         !
 ! A30   A(12,10,13)           109.5413                                         !
 ! A31   A(12,10,14)           110.4452                                         !
 ! A32   A(13,10,14)           107.6907                                         !
 ! A33   A(2,13,10)            133.7971                                         !
 ! A34   A(1,15,14)            106.4129                                         !
 ! A35   A(17,16,18)           109.946                                          !
 ! A36   A(17,16,19)           109.9671                                         !
 ! A37   A(17,16,20)           110.6999                                         !
 ! A38   A(18,16,19)           108.9762                                         !
 ! A39   A(18,16,20)           109.2276                                         !
 ! A40   A(19,16,20)           107.9794                                         !
 ! A41   A(3,19,16)            126.2614                                         !
 ! A42   A(1,21,20)            102.8319                                         !
 ! A43   A(23,22,24)           109.2183                                         !
 ! A44   A(23,22,25)           109.2357                                         !
 ! A45   A(23,22,26)           109.7864                                         !
 ! A46   A(24,22,25)           109.2161                                         !
 ! A47   A(24,22,26)           109.6386                                         !
 ! A48   A(25,22,26)           109.7287                                         !
 ! A49   L(7,3,19,1,-1)        193.8503                                         !
 ! A50   L(4,8,9,2,-1)         177.8299                                         !
 ! A51   L(10,14,15,2,-1)      177.8778                                         !
 ! A52   L(16,20,21,2,-1)      178.5045                                         !
 ! A53   L(22,26,27,4,-1)      180.1015                                         !
 ! A54   L(1,27,26,4,-1)       182.2694                                         !
 ! A55   L(7,3,19,1,-2)        182.7939                                         !
 ! A56   L(4,8,9,2,-2)         179.4544                                         !
 ! A57   L(10,14,15,2,-2)      179.2793                                         !
 ! A58   L(16,20,21,2,-2)      181.4681                                         !
 ! A59   L(22,26,27,4,-2)      179.8528                                         !
 ! A60   L(1,27,26,4,-2)       178.634                                          !
 ! D1    D(3,1,2,13)          -132.0912                                         !
 ! D2    D(9,1,2,13)           -45.791                                          !
 ! D3    D(15,1,2,13)           23.542                                          !
 ! D4    D(21,1,2,13)          143.4383                                         !
 ! D5    D(27,1,2,13)          -50.3122                                         !
 ! D6    D(2,1,3,7)            131.821                                          !
 ! D7    D(2,1,3,19)           -50.973                                          !
 ! D8    D(9,1,3,7)            -23.6207                                         !
 ! D9    D(9,1,3,19)           153.5854                                         !
 ! D10   D(15,1,3,7)            45.512                                          !
 ! D11   D(15,1,3,19)         -137.2819                                         !
 ! D12   D(21,1,3,7)          -144.5154                                         !
 ! D13   D(21,1,3,19)           32.6907                                         !
 ! D14   D(27,1,3,7)            50.2553                                         !
 ! D15   D(27,1,3,19)         -132.5386                                         !
 ! D16   D(2,1,9,8)            -60.4666                                         !
 ! D17   D(3,1,9,8)             27.2737                                         !
 ! D18   D(15,1,9,8)          -129.9734                                         !
 ! D19   D(21,1,9,8)           108.8934                                         !
 ! D20   D(27,1,9,8)           -55.7968                                         !
 ! D21   D(2,1,15,14)          -26.9902                                         !
 ! D22   D(3,1,15,14)           60.7448                                         !
 ! D23   D(9,1,15,14)          130.0475                                         !
 ! D24   D(21,1,15,14)        -107.8024                                         !
 ! D25   D(27,1,15,14)          55.8423                                         !
 ! D26   D(2,1,21,20)           48.4942                                         !
 ! D27   D(3,1,21,20)          -44.7491                                         !
 ! D28   D(9,1,21,20)         -127.0811                                         !
 ! D29   D(15,1,21,20)         130.5337                                         !
 ! D30   D(27,1,21,20)           4.0121                                         !
 ! D31   D(2,1,22,23)          -53.4053                                         !
 ! D32   D(2,1,22,24)           65.7767                                         !
 ! D33   D(2,1,22,25)         -173.8812                                         !
 ! D34   D(3,1,22,23)           40.5719                                         !
 ! D35   D(3,1,22,24)          159.7539                                         !
 ! D36   D(3,1,22,25)          -79.904                                          !
 ! D37   D(9,1,22,23)          128.5042                                         !
 ! D38   D(9,1,22,24)         -112.3138                                         !
 ! D39   D(9,1,22,25)            8.0283                                         !
 ! D40   D(15,1,22,23)        -142.046                                          !
 ! D41   D(15,1,22,24)         -22.8639                                         !
 ! D42   D(15,1,22,25)          97.4781                                         !
 ! D43   D(21,1,22,23)         -11.3857                                         !
 ! D44   D(21,1,22,24)         107.7964                                         !
 ! D45   D(21,1,22,25)        -131.8615                                         !
 ! D46   D(1,2,13,10)          -24.6082                                         !
 ! D47   D(1,3,7,4)             24.1265                                         !
 ! D48   D(1,3,19,16)          -14.0463                                         !
 ! D49   D(5,4,7,3)           -121.6741                                         !
 ! D50   D(6,4,7,3)            118.4019                                         !
 ! D51   D(8,4,7,3)             -1.749                                          !
 ! D52   D(5,4,9,1)             99.9584                                         !
 ! D53   D(6,4,9,1)           -138.6219                                         !
 ! D54   D(7,4,9,1)            -19.2019                                         !
 ! D55   D(11,10,13,2)         122.3854                                         !
 ! D56   D(12,10,13,2)        -117.7128                                         !
 ! D57   D(14,10,13,2)           2.4374                                         !
 ! D58   D(11,10,15,1)        -100.6198                                         !
 ! D59   D(12,10,15,1)         137.9788                                         !
 ! D60   D(13,10,15,1)          18.5705                                         !
 ! D61   D(17,16,19,3)        -141.4336                                         !
 ! D62   D(18,16,19,3)          97.9863                                         !
 ! D63   D(20,16,19,3)         -20.5502                                         !
 ! D64   D(17,16,21,1)         166.3405                                         !
 ! D65   D(18,16,21,1)         -71.9921                                         !
 ! D66   D(19,16,21,1)          45.8858                                         !
 --------------------------------------------------------------------------------
                          Input orientation:                          
 ---------------------------------------------------------------------
 Center     Atomic      Atomic             Coordinates (Angstroms)
 Number     Number       Type             X           Y           Z
 ---------------------------------------------------------------------
      1         82           0       -0.374542   -0.009460   -0.536627
      2         17           0       -0.863225   -1.969470    1.211814
      3         17           0       -1.016038    1.896708    1.230896
      4          6           0        1.919622    3.736024    0.048378
      5          1           0        2.950159    3.536088    0.399995
      6          1           0        1.849105    4.785038   -0.297578
      7          1           0        1.202255    3.569480    0.878798
      8          6           0        1.570763    2.823738   -1.025268
      9          7           0        1.262900    2.060408   -1.865595
     10          6           0        2.194646   -3.583137    0.003081
     11          1           0        3.213029   -3.318545    0.347704
     12          1           0        2.191344   -4.630704   -0.354288
     13          1           0        1.475587   -3.474663    0.841628
     14          6           0        1.775091   -2.684573   -1.056736
     15          7           0        1.409176   -1.933832   -1.885040
     16          6           0       -4.151429   -0.104724    1.427898
     17          1           0       -5.240367    0.092005    1.433993
     18          1           0       -3.940265   -1.075181    1.916823
     19          1           0       -3.618516    0.698482    1.975723
     20          6           0       -3.643232   -0.133554    0.069679
     21          7           0       -3.191898   -0.147233   -1.016939
     22          6           0        4.098917    0.048121    2.059377
     23          1           0        3.889014    0.147228    3.141688
     24          1           0        4.632815   -0.904736    1.877399
     25          1           0        4.737339    0.891618    1.732924
     26          6           0        2.854795    0.059388    1.315127
     27          7           0        1.851156    0.065986    0.711916
 ---------------------------------------------------------------------
                    Distance matrix (angstroms):
                    1          2          3          4          5
     1  Pb   0.000000
     2  Cl   2.671609   0.000000
     3  Cl   2.677524   3.869244   0.000000
     4  C    4.431035   6.453718   3.660537   0.000000
     5  H    4.949930   6.746267   4.371348   1.107075   0.000000
     6  H    5.290460   7.433598   4.346001   1.106837   1.805216
     7  H    4.159150   5.920902   2.800529   1.109932   1.812605
     8  C    3.471310   5.822686   3.555446   1.451442   2.107498
     9  N    2.954950   5.498252   3.848196   2.627216   3.187063
    10  C    4.434318   3.662722   6.468750   7.324466   7.170195
    11  H    4.960116   4.379787   6.772290   7.178401   6.859871
    12  H    5.288942   4.343413   7.443603   8.380818   8.236579
    13  H    4.162955   2.805830   5.933916   7.267765   7.177745
    14  C    3.470975   3.552240   5.831964   6.516612   6.496112
    15  N    2.950097   3.841300   5.501251   6.012148   6.125034
    16  C    4.258322   3.786325   3.724945   7.315195   8.046406
    17  H    5.250704   4.843389   4.598169   8.152560   8.945143
    18  H    4.457528   3.281000   4.225367   7.808780   8.428672
    19  H    4.163706   3.910646   2.960304   6.603960   7.326828
    20  C    3.326761   3.521860   3.517462   6.776388   7.553025
    21  N    2.861324   3.702784   3.736954   6.507090   7.300645
    22  C    5.172464   5.423273   5.501493   4.732237   4.029778
    23  H    5.633157   5.548747   5.547193   5.130938   4.459002
    24  H    5.630512   5.637651   6.338422   5.678326   4.973427
    25  H    5.665168   6.310602   5.862046   4.343716   3.458892
    26  C    3.723218   4.236816   4.285579   3.999607   3.596388
    27  N    2.553092   3.429408   3.441175   3.730167   3.653315
                    6          7          8          9         10
     6  H    0.000000
     7  H    1.811037   0.000000
     8  C    2.110381   2.077834   0.000000
     9  N    3.197800   3.132518   1.176266   0.000000
    10  C    8.380701   7.274039   6.518801   6.017450   0.000000
    11  H    8.242860   7.195149   6.504593   6.134724   1.107193
    12  H    9.422130   8.351156   7.510262   6.922213   1.106851
    13  H    8.346254   7.049542   6.569947   6.165330   1.109943
    14  C    7.508455   6.571728   5.512189   4.840603   1.451432
    15  N    6.917860   6.161823   4.837333   3.996965   2.627198
    16  C    7.930539   6.516381   6.880217   6.697003   7.375780
    17  H    8.676607   7.342237   7.739626   7.553434   8.416270
    18  H    8.530096   7.006845   7.364027   7.156223   6.898505
    19  H    7.194631   5.717141   6.360131   6.359149   7.484412
    20  C    7.381951   6.151900   6.093457   5.712170   6.781215
    21  N    7.089181   6.059402   5.613348   5.043721   6.469987
    22  C    5.749371   4.710031   4.859078   5.243824   4.587007
    23  H    6.123648   4.904198   5.468227   5.969054   5.161139
    24  H    6.697245   5.725780   5.630555   5.844520   4.078181
    25  H    5.255811   4.516336   4.622544   5.136841   5.429648
    26  C    5.093525   3.904103   3.842892   4.081079   3.927499
    27  N    4.825819   3.566986   3.271333   3.311695   3.733167
                   11         12         13         14         15
    11  H    0.000000
    12  H    1.805101   0.000000
    13  H    1.813019   1.810788   0.000000
    14  C    2.107614   2.110480   2.077915   0.000000
    15  N    3.186920   3.198141   3.132616   1.176262   0.000000
    16  C    8.107447   7.993213   6.585097   6.924786   6.726181
    17  H    9.179966   8.985113   7.627323   7.945425   7.703013
    18  H    7.659271   7.442870   6.020383   6.640594   6.618758
    19  H    8.090547   8.220927   6.682155   7.052082   6.863836
    20  C    7.565036   7.378779   6.161268   6.093828   5.708656
    21  N    7.276163   7.037038   6.025900   5.577693   5.011528
    22  C    3.879312   5.599644   4.557936   4.751625   5.169262
    23  H    4.502764   6.158941   4.922702   5.487670   5.978996
    24  H    3.190961   4.982373   4.200646   4.465820   5.060319
    25  H    4.686985   6.429197   5.522485   5.417218   5.670053
    26  C    3.531950   5.022357   3.823079   3.784285   4.037798
    27  N    3.666388   4.828190   3.562874   3.271008   3.307386
                   16         17         18         19         20
    16  C    0.000000
    17  H    1.106583   0.000000
    18  H    1.106989   1.812654   0.000000
    19  H    1.108715   1.814301   1.803572   0.000000
    20  C    1.450466   2.112598   2.094476   2.079879   0.000000
    21  N    2.626735   3.203206   3.166718   3.138991   1.176703
    22  C    8.275889   9.360302   8.118533   7.745239   7.995797
    23  H    8.224918   9.287889   8.018241   7.617504   8.139460
    24  H    8.832044   9.933268   8.574864   8.406214   8.506205
    25  H    8.949633  10.014158   8.899602   8.361612   8.605308
    26  C    7.009053   8.096100   6.915354   6.538240   6.619118
    27  N    6.047544   7.128237   6.024501   5.649297   5.535393
                   21         22         23         24         25
    21  N    0.000000
    22  C    7.915672   0.000000
    23  H    8.217067   1.106922   0.000000
    24  H    8.377179   1.107294   1.805074   0.000000
    25  H    8.456580   1.107087   1.805100   1.805184   0.000000
    26  C    6.484113   1.449784   2.100868   2.099295   2.100270
    27  N    5.335428   2.620763   3.172264   3.168325   3.170832
                   26         27
    26  C    0.000000
    27  N    1.170982   0.000000
 Stoichiometry    C8H12Cl2N4Pb
 Framework group  C1[X(C8H12Cl2N4Pb)]
 Deg. of freedom    75
 Full point group                 C1      NOp   1
 Largest Abelian subgroup         C1      NOp   1
 Largest concise Abelian subgroup C1      NOp   1
                         Standard orientation:                         
 ---------------------------------------------------------------------
 Center     Atomic      Atomic             Coordinates (Angstroms)
 Number     Number       Type             X           Y           Z
 ---------------------------------------------------------------------
      1         82           0       -0.373435   -0.007254   -0.536809
      2         17           0       -0.869116   -1.961036    1.216625
      3         17           0       -1.006446    1.905758    1.226375
      4          6           0        1.935982    3.730427    0.038002
      5          1           0        2.965880    3.527222    0.389617
      6          1           0        1.869497    4.778871   -0.310472
      7          1           0        1.218354    3.568775    0.869162
      8          6           0        1.582957    2.816938   -1.033257
      9          7           0        1.271638    2.052807   -1.871580
     10          6           0        2.181690   -3.589865    0.010378
     11          1           0        3.201289   -3.328515    0.353875
     12          1           0        2.174023   -4.638275   -0.344441
     13          1           0        1.463475   -3.476475    0.848997
     14          6           0        1.765224   -2.692207   -1.051424
     15          7           0        1.401918   -1.942023   -1.881379
     16          6           0       -4.149727   -0.082622    1.429723
     17          1           0       -5.237866    0.118479    1.435853
     18          1           0       -3.942212   -1.052726    1.920908
     19          1           0       -3.613339    0.719773    1.975341
     20          6           0       -3.642303   -0.116788    0.071339
     21          7           0       -3.191550   -0.134914   -1.015456
     22          6           0        4.101468    0.038728    2.056936
     23          1           0        3.892485    0.141304    3.139101
     24          1           0        4.631460   -0.916699    1.877025
     25          1           0        4.743103    0.878867    1.728131
     26          6           0        2.857043    0.053166    1.313248
     27          7           0        1.853148    0.062316    0.710496
 ---------------------------------------------------------------------
 Rotational constants (GHZ):           0.3593366           0.2898063           0.2210395
 General basis read from cards:  (5D, 7F)
 ======================================================================================================
                                       Pseudopotential Parameters
 ======================================================================================================
  Center     Atomic      Valence      Angular      Power
  Number     Number     Electrons     Momentum     of R      Exponent        Coefficient   SO-Coeffient
 ======================================================================================================
    1         82            4
                                      G and up 
                                                     0      376.5803786       -0.17896050    0.00000000
                                                     1       86.4840014      -54.39723370    0.00000000
                                                     2       26.6784276     -199.70617590    0.00000000
                                                     2        9.4261986      -79.12239410    0.00000000
                                                     2        2.7101719      -24.98690200    0.00000000
                                                     2        0.8792031       -4.43979390    0.00000000
                                      S - G
                                                     0      132.4248796        2.81153860    0.00000000
                                                     1       47.2376044       65.03672050    0.00000000
                                                     2       17.6312727      212.78685450    0.00000000
                                                     2        5.4744712       72.10531750    0.00000000
                                                     2        1.2634856       33.01409400    0.00000000
                                                     2        0.7651447       -5.77084610    0.00000000
                                      P - G
                                                     0       67.8966454        4.87549110    0.00000000
                                                     1       24.9898225       63.91481020    0.00000000
                                                     2       10.7052939      148.10643580    0.00000000
                                                     2        3.2792568       47.31063010    0.00000000
                                                     2        0.8452522       21.03067020    0.00000000
                                                     2        0.6416245       -7.09307720    0.00000000
                                      D - G
                                                     0       68.8336005        3.21613880    0.00000000
                                                     1       24.2815874       55.73860860    0.00000000
                                                     2        9.4532762      121.41683510    0.00000000
                                                     2        2.4788185       19.34560640    0.00000000
                                                     2        2.4789161       15.36751680    0.00000000
                                                     2        0.5551738        6.12987240    0.00000000
                                      F - G
                                                     0      128.1021322        4.13536820    0.00000000
                                                     1       54.8029154       67.51284460    0.00000000
                                                     2       24.5529308      258.73731070    0.00000000
                                                     2        8.1144792      113.24782640    0.00000000
                                                     2        1.6931290       34.16802010    0.00000000
                                                     2        0.7670500       -6.55319560    0.00000000
    2         17            7
                                      D and up 
                                                     1       94.8130000      -10.00000000    0.00000000
                                                     2      165.6440000       66.27291700    0.00000000
                                                     2       30.8317000      -28.96859500    0.00000000
                                                     2       10.5841000      -12.86633700    0.00000000
                                                     2        3.7704000       -1.71021700    0.00000000
                                      S - D
                                                     0      128.8391000        3.00000000    0.00000000
                                                     1      120.3786000       12.85285100    0.00000000
                                                     2       63.5622000      275.67239800    0.00000000
                                                     2       18.0695000      115.67771200    0.00000000
                                                     2        3.8142000       35.06060900    0.00000000
                                      P - D
                                                     0      216.5263000        5.00000000    0.00000000
                                                     1       46.5723000        7.47948600    0.00000000
                                                     2      147.4685000      613.03200000    0.00000000
                                                     2       48.9869000      280.80068500    0.00000000
                                                     2       13.2096000      107.87882400    0.00000000
                                                     2        3.1831000       15.34395600    0.00000000
    3         17            7
                                      D and up 
                                                     1       94.8130000      -10.00000000    0.00000000
                                                     2      165.6440000       66.27291700    0.00000000
                                                     2       30.8317000      -28.96859500    0.00000000
                                                     2       10.5841000      -12.86633700    0.00000000
                                                     2        3.7704000       -1.71021700    0.00000000
                                      S - D
                                                     0      128.8391000        3.00000000    0.00000000
                                                     1      120.3786000       12.85285100    0.00000000
                                                     2       63.5622000      275.67239800    0.00000000
                                                     2       18.0695000      115.67771200    0.00000000
                                                     2        3.8142000       35.06060900    0.00000000
                                      P - D
                                                     0      216.5263000        5.00000000    0.00000000
                                                     1       46.5723000        7.47948600    0.00000000
                                                     2      147.4685000      613.03200000    0.00000000
                                                     2       48.9869000      280.80068500    0.00000000
                                                     2       13.2096000      107.87882400    0.00000000
                                                     2        3.1831000       15.34395600    0.00000000
    4          6
                                   No pseudopotential on this center.
    5          1
                                   No pseudopotential on this center.
    6          1
                                   No pseudopotential on this center.
    7          1
                                   No pseudopotential on this center.
    8          6
                                   No pseudopotential on this center.
    9          7
                                   No pseudopotential on this center.
   10          6
                                   No pseudopotential on this center.
   11          1
                                   No pseudopotential on this center.
   12          1
                                   No pseudopotential on this center.
   13          1
                                   No pseudopotential on this center.
   14          6
                                   No pseudopotential on this center.
   15          7
                                   No pseudopotential on this center.
   16          6
                                   No pseudopotential on this center.
   17          1
                                   No pseudopotential on this center.
   18          1
                                   No pseudopotential on this center.
   19          1
                                   No pseudopotential on this center.
   20          6
                                   No pseudopotential on this center.
   21          7
                                   No pseudopotential on this center.
   22          6
                                   No pseudopotential on this center.
   23          1
                                   No pseudopotential on this center.
   24          1
                                   No pseudopotential on this center.
   25          1
                                   No pseudopotential on this center.
   26          6
                                   No pseudopotential on this center.
   27          7
                                   No pseudopotential on this center.
 ======================================================================================================
 There are   624 symmetry adapted cartesian basis functions of A   symmetry.
 There are   552 symmetry adapted basis functions of A   symmetry.
   552 basis functions,   864 primitive gaussians,   624 cartesian basis functions
    53 alpha electrons       53 beta electrons
       nuclear repulsion energy       741.3629887181 Hartrees.
 NAtoms=   27 NActive=   27 NUniq=   27 SFac= 1.00D+00 NAtFMM=   60 NAOKFM=F Big=F
 Integral buffers will be    131072 words long.
 Raffenetti 1 integral format.
 Two-electron integral symmetry is turned on.
 Nuclear repulsion after empirical dispersion term =      741.3316637604 Hartrees.
 ------------------------------------------------------------------------------
 Polarizable Continuum Model (PCM)
 =================================
 Model                : PCM.
 Atomic radii         : UFF (Universal Force Field).
 Polarization charges : Total charges.
 Charge compensation  : None.
 Solution method      : On-the-fly selection.
 Cavity type          : Scaled VdW (van der Waals Surface) (Alpha=1.100).
 Cavity algorithm     : GePol (No added spheres)
                        Default sphere list used, NSphG=   27.
                        Lebedev-Laikov grids with approx.  5.0 points / Ang**2.
                        Smoothing algorithm: York/Karplus (Gamma=1.0000).
                        Polarization charges: spherical gaussians, with
                                              point-specific exponents (IZeta= 3).
                        Self-potential: point-specific (ISelfS= 7).
                        Self-field    : sphere-specific E.n sum rule (ISelfD= 2).
 Solvent              : Acetonitrile, Eps=  35.688000 Eps(inf)=   1.806874
 ------------------------------------------------------------------------------
 One-electron integrals computed using PRISM.
   1 Symmetry operations used in ECPInt.
 ECPInt:  NShTT=   20910 NPrTT=   76755 LenC2=   17408 LenP2D=   42104.
 LDataN:  DoStor=T MaxTD1= 7 Len=  274
 NBasis=   552 RedAO= T EigKep=  5.59D-04  NBF=   552
 NBsUse=   552 1.00D-06 EigRej= -1.00D+00 NBFU=   552
 Defaulting to unpruned grid for atomic number  82.
 Initial guess from the checkpoint file:  "02-PbCl2_acn.chk"
 B after Tr=     0.000000    0.000000    0.000000
         Rot=    1.000000   -0.000000   -0.000000    0.000000 Ang=   0.00 deg.
 Requested convergence on RMS density matrix=1.00D-08 within 128 cycles.
 Requested convergence on MAX density matrix=1.00D-06.
 Requested convergence on             energy=1.00D-06.
 No special actions if energy rises.
 Defaulting to unpruned grid for atomic number  82.
 Defaulting to unpruned grid for atomic number  82.
 Defaulting to unpruned grid for atomic number  82.
 Defaulting to unpruned grid for atomic number  82.
 Defaulting to unpruned grid for atomic number  82.
 Inv3:  Mode=1 IEnd=    21772908.
 Iteration    1 A*A^-1 deviation from unit magnitude is 3.11D-15 for    227.
 Iteration    1 A*A^-1 deviation from orthogonality  is 2.34D-15 for   1932    845.
 Iteration    1 A^-1*A deviation from unit magnitude is 3.55D-15 for   2547.
 Iteration    1 A^-1*A deviation from orthogonality  is 4.81D-15 for   2200   2139.
 Error on total polarization charges =  0.01398
 SCF Done:  E(RCAM-B3LYP) =  -564.463845382     A.U. after   11 cycles
            NFock= 11  Conv=0.68D-08     -V/T= 2.0465
 DoSCS=F DFT=T ScalE2(SS,OS)=  1.000000  1.000000
 ExpMin= 5.98D-02 ExpMax= 1.14D+04 ExpMxC= 3.89D+02 IAcc=3 IRadAn=         5 AccDes= 0.00D+00
 HarFok:  IExCor=  205 AccDes= 0.00D+00 IRadAn=         5 IDoV=-2 UseB2=F ITyADJ=14
 ICtDFT= 12500011 ScaDFX=  1.000000  1.000000  1.000000  1.000000
 Defaulting to unpruned grid for atomic number  82.
 Range of M.O.s used for correlation:    13   552
 NBasis=   552 NAE=    53 NBE=    53 NFC=    12 NFV=     0
 NROrb=    540 NOA=    41 NOB=    41 NVA=   499 NVB=   499

 **** Warning!!: The largest alpha MO coefficient is  0.11811596D+02

 NEqPCM:  Using non-equilibrium solvation (IEInf=1, Eps=  35.6880, EpsInf=   1.8069)
 Inv3:  Mode=1 IEnd=    21772908.
 Iteration    1 A*A^-1 deviation from unit magnitude is 3.77D-15 for   1278.
 Iteration    1 A*A^-1 deviation from orthogonality  is 2.76D-15 for   1832    884.
 Iteration    1 A^-1*A deviation from unit magnitude is 4.00D-15 for    247.
 Iteration    1 A^-1*A deviation from orthogonality  is 1.37D-14 for   2179   2139.
 Orbital symmetries:
       Occupied  (A) (A) (A) (A) (A) (A) (A) (A) (A) (A) (A) (A)
                 (A) (A) (A) (A) (A) (A) (A) (A) (A) (A) (A) (A)
                 (A) (A) (A) (A) (A) (A) (A) (A) (A) (A) (A) (A)
                 (A) (A) (A) (A) (A) (A) (A) (A) (A) (A) (A) (A)
                 (A) (A) (A) (A) (A)
       Virtual   (A) (A) (A) (A) (A) (A) (A) (A) (A) (A) (A) (A)
                 (A) (A) (A) (A) (A) (A) (A) (A) (A) (A) (A) (A)
                 (A) (A) (A) (A) (A) (A) (A) (A) (A) (A) (A) (A)
                 (A) (A) (A) (A) (A) (A) (A) (A) (A) (A) (A) (A)
                 (A) (A) (A) (A) (A) (A) (A) (A) (A) (A) (A) (A)
                 (A) (A) (A) (A) (A) (A) (A) (A) (A) (A) (A) (A)
                 (A) (A) (A) (A) (A) (A) (A) (A) (A) (A) (A) (A)
                 (A) (A) (A) (A) (A) (A) (A) (A) (A) (A) (A) (A)
                 (A) (A) (A) (A) (A) (A) (A) (A) (A) (A) (A) (A)
                 (A) (A) (A) (A) (A) (A) (A) (A) (A) (A) (A) (A)
                 (A) (A) (A) (A) (A) (A) (A) (A) (A) (A) (A) (A)
                 (A) (A) (A) (A) (A) (A) (A) (A) (A) (A) (A) (A)
                 (A) (A) (A) (A) (A) (A) (A) (A) (A) (A) (A) (A)
                 (A) (A) (A) (A) (A) (A) (A) (A) (A) (A) (A) (A)
                 (A) (A) (A) (A) (A) (A) (A) (A) (A) (A) (A) (A)
                 (A) (A) (A) (A) (A) (A) (A) (A) (A) (A) (A) (A)
                 (A) (A) (A) (A) (A) (A) (A) (A) (A) (A) (A) (A)
                 (A) (A) (A) (A) (A) (A) (A) (A) (A) (A) (A) (A)
                 (A) (A) (A) (A) (A) (A) (A) (A) (A) (A) (A) (A)
                 (A) (A) (A) (A) (A) (A) (A) (A) (A) (A) (A) (A)
                 (A) (A) (A) (A) (A) (A) (A) (A) (A) (A) (A) (A)
                 (A) (A) (A) (A) (A) (A) (A) (A) (A) (A) (A) (A)
                 (A) (A) (A) (A) (A) (A) (A) (A) (A) (A) (A) (A)
                 (A) (A) (A) (A) (A) (A) (A) (A) (A) (A) (A) (A)
                 (A) (A) (A) (A) (A) (A) (A) (A) (A) (A) (A) (A)
                 (A) (A) (A) (A) (A) (A) (A) (A) (A) (A) (A) (A)
                 (A) (A) (A) (A) (A) (A) (A) (A) (A) (A) (A) (A)
                 (A) (A) (A) (A) (A) (A) (A) (A) (A) (A) (A) (A)
                 (A) (A) (A) (A) (A) (A) (A) (A) (A) (A) (A) (A)
                 (A) (A) (A) (A) (A) (A) (A) (A) (A) (A) (A) (A)
                 (A) (A) (A) (A) (A) (A) (A) (A) (A) (A) (A) (A)
                 (A) (A) (A) (A) (A) (A) (A) (A) (A) (A) (A) (A)
                 (A) (A) (A) (A) (A) (A) (A) (A) (A) (A) (A) (A)
                 (A) (A) (A) (A) (A) (A) (A) (A) (A) (A) (A) (A)
                 (A) (A) (A) (A) (A) (A) (A) (A) (A) (A) (A) (A)
                 (A) (A) (A) (A) (A) (A) (A) (A) (A) (A) (A) (A)
                 (A) (A) (A) (A) (A) (A) (A) (A) (A) (A) (A) (A)
                 (A) (A) (A) (A) (A) (A) (A) (A) (A) (A) (A) (A)
                 (A) (A) (A) (A) (A) (A) (A) (A) (A) (A) (A) (A)
                 (A) (A) (A) (A) (A) (A) (A) (A) (A) (A) (A) (A)
                 (A) (A) (A) (A) (A) (A) (A) (A) (A) (A) (A) (A)
                 (A) (A) (A) (A) (A) (A) (A)
    40 initial guesses have been made.
 Convergence on wavefunction:    0.001000000000000
 Iteration     1 Dimension    40 NMult     0 NNew     40
 CISAX will form    40 AO SS matrices at one time.
 Defaulting to unpruned grid for atomic number  82.
 Defaulting to unpruned grid for atomic number  82.
 Defaulting to unpruned grid for atomic number  82.
 Defaulting to unpruned grid for atomic number  82.
 Defaulting to unpruned grid for atomic number  82.
 New state      7 was old state     11
 New state      8 was old state      7
 New state     10 was old state     12
 Iteration     2 Dimension    60 NMult    40 NNew     20
 New state      5 was old state      6
 New state      6 was old state      7
 New state      7 was old state      5
 Iteration     3 Dimension    80 NMult    60 NNew     20
 Iteration     4 Dimension   100 NMult    80 NNew     20
 Iteration     5 Dimension   120 NMult   100 NNew     20
 Iteration     6 Dimension   140 NMult   120 NNew     20
 Iteration     7 Dimension   150 NMult   140 NNew     10
 Iteration     8 Dimension   154 NMult   150 NNew      4
 ***********************************************************************
 Excited states from <AA,BB:AA,BB> singles matrix:
 ***********************************************************************
 
 Ground to excited state transition densities written to RWF  633
 Ground to excited state transition electric dipole moments (Au):
       state          X           Y           Z        Dip. S.      Osc.
         1        -0.9946      0.4186     -0.0783      1.1706      0.1797
         2        -0.3833     -0.9264     -0.0673      1.0097      0.1563
         3         0.3774      0.0153     -0.8209      0.8166      0.1283
         4        -0.1038      0.0040      0.1070      0.0223      0.0035
         5         0.4316     -0.0076     -0.0396      0.1879      0.0303
         6        -0.5241      0.0742      0.0278      0.2810      0.0455
         7         0.0954      0.7835     -0.0184      0.6234      0.1017
         8        -0.0270     -0.6471      0.0126      0.4196      0.0689
         9         0.1295     -0.4787      0.0248      0.2465      0.0413
        10        -0.0094     -0.5267      0.0010      0.2775      0.0467
 Ground to excited state transition velocity dipole moments (Au):
       state          X           Y           Z        Dip. S.      Osc.
         1         0.1913     -0.0670      0.0133      0.0413      0.1195
         2         0.0747      0.1460      0.0111      0.0270      0.0776
         3        -0.0662     -0.0025      0.1901      0.0405      0.1147
         4         0.0109     -0.0017      0.0227      0.0006      0.0018
         5        -0.1367      0.0064     -0.0013      0.0187      0.0516
         6         0.1698     -0.0138      0.0052      0.0290      0.0798
         7        -0.0274     -0.1867     -0.0027      0.0356      0.0970
         8         0.0133      0.1533     -0.0075      0.0237      0.0643
         9        -0.0421      0.1071     -0.0059      0.0133      0.0352
        10         0.0019      0.1114      0.0029      0.0124      0.0328
 Ground to excited state transition magnetic dipole moments (Au):
       state          X           Y           Z
         1        -0.4596     -1.1593     -0.0419
         2         1.1242     -0.4908      0.0773
         3        -0.0112      0.4725      0.0136
         4         0.0254     -0.1868      0.0235
         5        -0.0706      0.0107     -0.3385
         6        -0.0828      0.0377     -0.2727
         7        -0.2756      0.0297      0.2385
         8         0.2190     -0.0540     -0.0157
         9         0.3864      0.1078      0.0380
        10         0.3228      0.0458     -0.3327
 Ground to excited state transition velocity quadrupole moments (Au):
       state          XX          YY          ZZ          XY          XZ          YZ
         1        -0.3432      0.5232     -0.0588     -0.1253      0.0829     -0.0944
         2        -0.1713      0.2579     -0.0237      0.2435      0.0138      0.1712
         3         0.0947     -0.2920      0.0613      0.0018     -0.1833     -0.0120
         4         0.0699     -0.5716      0.1947      0.0282     -0.0117     -0.0041
         5         0.1972     -0.1123     -0.0894      0.3045     -0.1993      0.0485
         6        -0.3552      0.2022      0.1107      0.2038      0.2398      0.0396
         7         0.0783     -0.0112     -0.0330     -0.0588     -0.0321     -0.0990
         8        -0.0674      0.0704     -0.0034      0.0679      0.0356      0.0797
         9         0.2152     -0.0309     -0.0242      0.0028     -0.0443      0.0609
        10         0.0155      0.0271     -0.0011      0.0957      0.0002      0.0323
 <0|del|b> * <b|rxdel|0> + <0|del|b> * <b|delr+rdel|0>
 Rotatory Strengths (R) in cgs (10**-40 erg-esu-cm/Gauss)
       state          XX          YY          ZZ    R(velocity)    E-M Angle
         1       124.4631   -161.0630      3.5440    -11.0186       92.43
         2      -106.8014    144.6170      2.3441     13.3866       86.26
         3         1.9091      5.6851     -1.1752      2.1397       88.71
         4         2.1785      0.1868      0.9662      1.1105       76.48
         5         2.0307      5.5806     22.0253      9.8789       77.63
         6         3.5518    -14.2824    -35.8650    -15.5319      109.05
         7       -17.3579     13.6589      7.6476      1.3162       88.87
         8       -20.3019      6.6133     -1.3781     -5.0222       98.66
         9        22.5664    -26.7999     -9.7261     -4.6532       96.14
        10         6.1413     -0.8127      7.9674      4.4320       84.76
 1/2[<0|r|b>*<b|rxdel|0> + (<0|rxdel|b>*<b|r|0>)*]
 Rotatory Strengths (R) in cgs (10**-40 erg-esu-cm/Gauss)
       state          XX          YY          ZZ     R(length)
         1      -323.2358    343.1805     -2.3169      5.8759
         2       304.7007   -321.5247      3.6760     -4.3827
         3         2.9845     -5.1213      7.8941      1.9191
         4         1.8644      0.5236     -1.7803      0.2026
         5        21.5360      0.0578     -9.4824      4.0371
         6       -30.6830     -1.9796      5.3610     -9.1005
         7        18.5911    -16.4359      3.1023      1.7525
         8         4.1776    -24.7055      0.1396     -6.7961
         9       -35.3809     36.4854     -0.6654      0.1464
        10         2.1390     17.0640      0.2257      6.4762
  1/2[<0|del|b>*<b|r|0> + (<0|r|b>*<b|del|0>)*] (Au)
       state          X           Y           Z        Dip. S.   Osc.(frdel)
         1        -0.1903     -0.0281     -0.0010      0.2193      0.1462
         2        -0.0286     -0.1353     -0.0007      0.1647      0.1098
         3        -0.0250     -0.0000     -0.1561      0.1811      0.1208
         4        -0.0011     -0.0000      0.0024     -0.0013     -0.0009
         5        -0.0590     -0.0000      0.0000      0.0590      0.0393
         6        -0.0890     -0.0010      0.0001      0.0899      0.0599
         7        -0.0026     -0.1463      0.0000      0.1488      0.0992
         8        -0.0004     -0.0992     -0.0001      0.0996      0.0664
         9        -0.0055     -0.0513     -0.0001      0.0569      0.0379
        10        -0.0000     -0.0587      0.0000      0.0587      0.0391

 Excitation energies and oscillator strengths:
 
 Excited State   1:      Singlet-A      6.2642 eV  197.93 nm  f=0.1797  <S**2>=0.000
      52 -> 56         0.11236
      53 -> 54         0.58660
      53 -> 55         0.19360
      53 -> 56         0.27671
 This state for optimization and/or second-order correction.
 Total Energy, E(TD-HF/TD-DFT) =  -564.233641535    
 Copying the excited state density for this state as the 1-particle RhoCI density.
 
 Excited State   2:      Singlet-A      6.3167 eV  196.28 nm  f=0.1563  <S**2>=0.000
      52 -> 55         0.10850
      52 -> 56        -0.27263
      53 -> 54        -0.20015
      53 -> 55         0.54809
      53 -> 56         0.18050
 
 Excited State   3:      Singlet-A      6.4108 eV  193.40 nm  f=0.1283  <S**2>=0.000
      49 -> 56        -0.11082
      50 -> 56         0.10841
      53 -> 54        -0.18018
      53 -> 55        -0.23533
      53 -> 56         0.58302
 
 Excited State   4:      Singlet-A      6.4761 eV  191.45 nm  f=0.0035  <S**2>=0.000
      49 -> 56        -0.11613
      52 -> 54         0.51189
      52 -> 55        -0.41915
      53 -> 56        -0.12261
 
 Excited State   5:      Singlet-A      6.5867 eV  188.23 nm  f=0.0303  <S**2>=0.000
      50 -> 54        -0.17864
      50 -> 55         0.27793
      50 -> 56        -0.11427
      51 -> 54        -0.16499
      51 -> 55         0.42799
      51 -> 56        -0.34810
 
 Excited State   6:      Singlet-A      6.6032 eV  187.76 nm  f=0.0455  <S**2>=0.000
      50 -> 54        -0.34800
      50 -> 56         0.24269
      51 -> 54         0.43393
      51 -> 55        -0.14410
      51 -> 56        -0.23832
 
 Excited State   7:      Singlet-A      6.6605 eV  186.15 nm  f=0.1017  <S**2>=0.000
      49 -> 54         0.11403
      49 -> 55        -0.11331
      51 -> 55         0.16566
      52 -> 54         0.37150
      52 -> 55         0.44614
      52 -> 56        -0.11137
      53 -> 54         0.12763
      53 -> 55        -0.17232
 
 Excited State   8:      Singlet-A      6.6973 eV  185.13 nm  f=0.0689  <S**2>=0.000
      49 -> 54        -0.11600
      51 -> 54        -0.13077
      51 -> 55        -0.17487
      51 -> 56        -0.10016
      52 -> 54         0.20914
      52 -> 55         0.23161
      52 -> 56         0.52104
      53 -> 54        -0.10659
      53 -> 55         0.13272
 
 Excited State   9:      Singlet-A      6.8436 eV  181.17 nm  f=0.0413  <S**2>=0.000
      49 -> 54        -0.11242
      50 -> 54         0.40183
      50 -> 56        -0.15245
      51 -> 54         0.42937
      51 -> 55         0.18598
      51 -> 56        -0.12375
 
 Excited State  10:      Singlet-A      6.8653 eV  180.59 nm  f=0.0467  <S**2>=0.000
      48 -> 56        -0.11395
      49 -> 54        -0.10778
      49 -> 55         0.10013
      50 -> 54        -0.24689
      50 -> 55         0.15035
      51 -> 54         0.13361
      51 -> 55         0.24335
      51 -> 56         0.50068
      52 -> 56         0.11674
 SavETr:  write IOETrn=   770 NScale= 10 NData=  16 NLR=1 NState=   10 LETran=     190.

 **********************************************************************

            Population analysis using the SCF Density.

 **********************************************************************

 Orbital symmetries:
       Occupied  (A) (A) (A) (A) (A) (A) (A) (A) (A) (A) (A) (A)
                 (A) (A) (A) (A) (A) (A) (A) (A) (A) (A) (A) (A)
                 (A) (A) (A) (A) (A) (A) (A) (A) (A) (A) (A) (A)
                 (A) (A) (A) (A) (A) (A) (A) (A) (A) (A) (A) (A)
                 (A) (A) (A) (A) (A)
       Virtual   (A) (A) (A) (A) (A) (A) (A) (A) (A) (A) (A) (A)
                 (A) (A) (A) (A) (A) (A) (A) (A) (A) (A) (A) (A)
                 (A) (A) (A) (A) (A) (A) (A) (A) (A) (A) (A) (A)
                 (A) (A) (A) (A) (A) (A) (A) (A) (A) (A) (A) (A)
                 (A) (A) (A) (A) (A) (A) (A) (A) (A) (A) (A) (A)
                 (A) (A) (A) (A) (A) (A) (A) (A) (A) (A) (A) (A)
                 (A) (A) (A) (A) (A) (A) (A) (A) (A) (A) (A) (A)
                 (A) (A) (A) (A) (A) (A) (A) (A) (A) (A) (A) (A)
                 (A) (A) (A) (A) (A) (A) (A) (A) (A) (A) (A) (A)
                 (A) (A) (A) (A) (A) (A) (A) (A) (A) (A) (A) (A)
                 (A) (A) (A) (A) (A) (A) (A) (A) (A) (A) (A) (A)
                 (A) (A) (A) (A) (A) (A) (A) (A) (A) (A) (A) (A)
                 (A) (A) (A) (A) (A) (A) (A) (A) (A) (A) (A) (A)
                 (A) (A) (A) (A) (A) (A) (A) (A) (A) (A) (A) (A)
                 (A) (A) (A) (A) (A) (A) (A) (A) (A) (A) (A) (A)
                 (A) (A) (A) (A) (A) (A) (A) (A) (A) (A) (A) (A)
                 (A) (A) (A) (A) (A) (A) (A) (A) (A) (A) (A) (A)
                 (A) (A) (A) (A) (A) (A) (A) (A) (A) (A) (A) (A)
                 (A) (A) (A) (A) (A) (A) (A) (A) (A) (A) (A) (A)
                 (A) (A) (A) (A) (A) (A) (A) (A) (A) (A) (A) (A)
                 (A) (A) (A) (A) (A) (A) (A) (A) (A) (A) (A) (A)
                 (A) (A) (A) (A) (A) (A) (A) (A) (A) (A) (A) (A)
                 (A) (A) (A) (A) (A) (A) (A) (A) (A) (A) (A) (A)
                 (A) (A) (A) (A) (A) (A) (A) (A) (A) (A) (A) (A)
                 (A) (A) (A) (A) (A) (A) (A) (A) (A) (A) (A) (A)
                 (A) (A) (A) (A) (A) (A) (A) (A) (A) (A) (A) (A)
                 (A) (A) (A) (A) (A) (A) (A) (A) (A) (A) (A) (A)
                 (A) (A) (A) (A) (A) (A) (A) (A) (A) (A) (A) (A)
                 (A) (A) (A) (A) (A) (A) (A) (A) (A) (A) (A) (A)
                 (A) (A) (A) (A) (A) (A) (A) (A) (A) (A) (A) (A)
                 (A) (A) (A) (A) (A) (A) (A) (A) (A) (A) (A) (A)
                 (A) (A) (A) (A) (A) (A) (A) (A) (A) (A) (A) (A)
                 (A) (A) (A) (A) (A) (A) (A) (A) (A) (A) (A) (A)
                 (A) (A) (A) (A) (A) (A) (A) (A) (A) (A) (A) (A)
                 (A) (A) (A) (A) (A) (A) (A) (A) (A) (A) (A) (A)
                 (A) (A) (A) (A) (A) (A) (A) (A) (A) (A) (A) (A)
                 (A) (A) (A) (A) (A) (A) (A) (A) (A) (A) (A) (A)
                 (A) (A) (A) (A) (A) (A) (A) (A) (A) (A) (A) (A)
                 (A) (A) (A) (A) (A) (A) (A) (A) (A) (A) (A) (A)
                 (A) (A) (A) (A) (A) (A) (A) (A) (A) (A) (A) (A)
                 (A) (A) (A) (A) (A) (A) (A) (A) (A) (A) (A) (A)
                 (A) (A) (A) (A) (A) (A) (A)
 The electronic state is 1-A.
 Alpha  occ. eigenvalues --  -14.42927 -14.41184 -14.40937 -14.40914 -10.34081
 Alpha  occ. eigenvalues --  -10.32425 -10.32042 -10.32013 -10.30256 -10.29154
 Alpha  occ. eigenvalues --  -10.29130 -10.29129  -1.02295  -1.00669  -1.00312
 Alpha  occ. eigenvalues --   -1.00284  -0.86617  -0.85474  -0.85391  -0.85366
 Alpha  occ. eigenvalues --   -0.81974  -0.80916  -0.61006  -0.58538  -0.58361
 Alpha  occ. eigenvalues --   -0.58302  -0.57497  -0.53939  -0.53701  -0.53107
 Alpha  occ. eigenvalues --   -0.52753  -0.52602  -0.52541  -0.52406  -0.52378
 Alpha  occ. eigenvalues --   -0.49207  -0.46965  -0.46367  -0.45631  -0.43154
 Alpha  occ. eigenvalues --   -0.43054  -0.41551  -0.41528  -0.40993  -0.40616
 Alpha  occ. eigenvalues --   -0.40553  -0.40139  -0.36173  -0.34774  -0.33873
 Alpha  occ. eigenvalues --   -0.33484  -0.32932  -0.31621
 Alpha virt. eigenvalues --    0.01439   0.01613   0.02255   0.04611   0.04991
 Alpha virt. eigenvalues --    0.05702   0.06054   0.06162   0.06539   0.07478
 Alpha virt. eigenvalues --    0.07942   0.08009   0.09158   0.09340   0.10386
 Alpha virt. eigenvalues --    0.13413   0.14013   0.15814   0.16573   0.17204
 Alpha virt. eigenvalues --    0.17998   0.18259   0.18901   0.20141   0.20380
 Alpha virt. eigenvalues --    0.20957   0.21195   0.21306   0.22044   0.22196
 Alpha virt. eigenvalues --    0.22802   0.26424   0.27360   0.28276   0.28771
 Alpha virt. eigenvalues --    0.29838   0.30398   0.30885   0.30990   0.31986
 Alpha virt. eigenvalues --    0.32789   0.34858   0.36462   0.37592   0.38405
 Alpha virt. eigenvalues --    0.38540   0.39470   0.40483   0.41990   0.42396
 Alpha virt. eigenvalues --    0.43823   0.44778   0.46397   0.47405   0.47781
 Alpha virt. eigenvalues --    0.47995   0.48478   0.48766   0.49314   0.49679
 Alpha virt. eigenvalues --    0.49898   0.50671   0.51052   0.51343   0.52396
 Alpha virt. eigenvalues --    0.52611   0.53554   0.54910   0.55244   0.55764
 Alpha virt. eigenvalues --    0.56101   0.57071   0.57579   0.58671   0.60337
 Alpha virt. eigenvalues --    0.61494   0.62079   0.63259   0.63803   0.64763
 Alpha virt. eigenvalues --    0.65104   0.65507   0.66520   0.67339   0.68059
 Alpha virt. eigenvalues --    0.69568   0.70033   0.71901   0.72067   0.72445
 Alpha virt. eigenvalues --    0.73074   0.73855   0.74345   0.74605   0.75254
 Alpha virt. eigenvalues --    0.75520   0.76255   0.77362   0.78694   0.81110
 Alpha virt. eigenvalues --    0.81672   0.84395   0.85957   0.86303   0.87535
 Alpha virt. eigenvalues --    0.88797   0.89033   0.89910   0.90304   0.90672
 Alpha virt. eigenvalues --    0.91577   0.92336   0.93687   0.94050   0.97722
 Alpha virt. eigenvalues --    0.98825   1.00500   1.01420   1.02718   1.03037
 Alpha virt. eigenvalues --    1.03085   1.03328   1.04435   1.04526   1.04881
 Alpha virt. eigenvalues --    1.05829   1.06230   1.06358   1.07085   1.07145
 Alpha virt. eigenvalues --    1.07597   1.08400   1.10059   1.10612   1.11010
 Alpha virt. eigenvalues --    1.12577   1.19434   1.21388   1.21539   1.21837
 Alpha virt. eigenvalues --    1.21955   1.23101   1.23477   1.23927   1.24264
 Alpha virt. eigenvalues --    1.24472   1.24709   1.25406   1.25796   1.27046
 Alpha virt. eigenvalues --    1.27626   1.28045   1.32848   1.32950   1.33153
 Alpha virt. eigenvalues --    1.33234   1.33695   1.34660   1.35726   1.35930
 Alpha virt. eigenvalues --    1.37425   1.37707   1.38224   1.38999   1.39293
 Alpha virt. eigenvalues --    1.41000   1.42538   1.42968   1.44746   1.45325
 Alpha virt. eigenvalues --    1.46131   1.46597   1.46954   1.47461   1.48962
 Alpha virt. eigenvalues --    1.50591   1.50711   1.51819   1.52142   1.52557
 Alpha virt. eigenvalues --    1.76478   1.77634   1.78517   1.79202   1.79781
 Alpha virt. eigenvalues --    1.80124   1.80514   1.82660   1.88919   1.91263
 Alpha virt. eigenvalues --    1.92513   1.92613   2.02674   2.04888   2.06038
 Alpha virt. eigenvalues --    2.10378   2.10580   2.13495   2.13902   2.15321
 Alpha virt. eigenvalues --    2.15662   2.19463   2.20155   2.21213   2.21338
 Alpha virt. eigenvalues --    2.22347   2.25104   2.26208   2.30881   2.32115
 Alpha virt. eigenvalues --    2.32533   2.32700   2.32806   2.33094   2.34766
 Alpha virt. eigenvalues --    2.35734   2.45602   2.46150   2.47588   2.49840
 Alpha virt. eigenvalues --    2.61579   2.61609   2.61889   2.62861   2.63006
 Alpha virt. eigenvalues --    2.63449   2.63978   2.64668   2.66688   2.66797
 Alpha virt. eigenvalues --    2.67043   2.67244   2.68696   2.69906   2.70240
 Alpha virt. eigenvalues --    2.70832   2.71606   2.72040   2.72844   2.72966
 Alpha virt. eigenvalues --    2.77387   2.77821   2.78472   2.78637   2.79672
 Alpha virt. eigenvalues --    2.80183   2.80787   2.81657   2.86075   2.86743
 Alpha virt. eigenvalues --    2.86823   2.87037   2.89110   2.89364   2.89829
 Alpha virt. eigenvalues --    2.90199   2.90453   2.91012   2.91143   2.91366
 Alpha virt. eigenvalues --    2.91619   2.92509   2.92658   2.93887   2.94026
 Alpha virt. eigenvalues --    2.94513   2.94813   2.95273   2.95404   2.96028
 Alpha virt. eigenvalues --    2.96789   3.00100   3.02222   3.02985   3.03605
 Alpha virt. eigenvalues --    3.03795   3.04395   3.04842   3.07020   3.08967
 Alpha virt. eigenvalues --    3.10198   3.10972   3.11048   3.11327   3.11500
 Alpha virt. eigenvalues --    3.11706   3.13281   3.13764   3.19551   3.20281
 Alpha virt. eigenvalues --    3.20661   3.21038   3.21281   3.21614   3.21848
 Alpha virt. eigenvalues --    3.22902   3.28090   3.28446   3.28871   3.29201
 Alpha virt. eigenvalues --    3.33499   3.34205   3.34329   3.34437   3.36410
 Alpha virt. eigenvalues --    3.36517   3.36659   3.37128   3.37474   3.37727
 Alpha virt. eigenvalues --    3.38427   3.38644   3.43598   3.43844   3.44223
 Alpha virt. eigenvalues --    3.44290   3.45914   3.46175   3.46465   3.46583
 Alpha virt. eigenvalues --    3.46588   3.47109   3.47161   3.47375   3.67717
 Alpha virt. eigenvalues --    3.68034   3.68238   3.68770   3.68970   3.69101
 Alpha virt. eigenvalues --    3.69399   3.69952   3.71580   3.72008   3.73150
 Alpha virt. eigenvalues --    3.73260   3.82564   3.82718   3.83064   3.83150
 Alpha virt. eigenvalues --    3.83233   3.84256   3.85130   3.85227   3.90798
 Alpha virt. eigenvalues --    3.92804   3.92982   3.93003   3.93821   3.94491
 Alpha virt. eigenvalues --    3.94632   3.95284   3.95386   3.95455   3.95692
 Alpha virt. eigenvalues --    3.96263   3.96546   3.96942   3.97663   3.98415
 Alpha virt. eigenvalues --    4.00674   4.01203   4.01241   4.01671   4.01717
 Alpha virt. eigenvalues --    4.01911   4.02148   4.02477   4.08155   4.08568
 Alpha virt. eigenvalues --    4.09127   4.09235   4.09511   4.09832   4.09931
 Alpha virt. eigenvalues --    4.10108   4.10627   4.10818   4.10984   4.11740
 Alpha virt. eigenvalues --    4.28383   4.28647   4.29163   4.29349   4.39384
 Alpha virt. eigenvalues --    4.39554   4.39810   4.40000   4.40318   4.40860
 Alpha virt. eigenvalues --    4.41692   4.41926   4.44905   4.45252   4.45404
 Alpha virt. eigenvalues --    4.45506   4.58121   4.58538   4.58669   4.58879
 Alpha virt. eigenvalues --    4.59021   4.59360   4.60107   4.60331   4.63950
 Alpha virt. eigenvalues --    4.64670   4.65153   4.65578   4.65649   4.65722
 Alpha virt. eigenvalues --    4.66401   4.67319   4.81061   4.82289   4.82815
 Alpha virt. eigenvalues --    4.82825   4.83227   4.83538   4.83870   4.84010
 Alpha virt. eigenvalues --    4.84131   4.84339   4.84802   4.87375   5.10496
 Alpha virt. eigenvalues --    5.11067   5.11525   5.11723   5.12838   5.13225
 Alpha virt. eigenvalues --    5.13574   5.14342   5.14521   5.14659   5.15855
 Alpha virt. eigenvalues --    5.16858   5.16927   5.17739   5.18017   5.19362
 Alpha virt. eigenvalues --    5.23332   5.23458   5.24157   5.24296   5.24449
 Alpha virt. eigenvalues --    5.24614   5.25408   5.26056   5.26183   5.26279
 Alpha virt. eigenvalues --    5.26474   5.26660   5.27142   5.27669   5.28045
 Alpha virt. eigenvalues --    5.28752   5.29128   5.29823   5.30102   5.30907
 Alpha virt. eigenvalues --    5.69405   5.69827   5.70519   5.72185   5.81691
 Alpha virt. eigenvalues --    5.81824   5.82489   5.82707   5.82831   5.83719
 Alpha virt. eigenvalues --    5.87230   5.88466   6.04454   6.05184   6.05699
 Alpha virt. eigenvalues --    6.07849   6.11731   6.12071   6.12176   6.12458
 Alpha virt. eigenvalues --    6.13061   6.13250   6.13466   6.14363   6.99838
 Alpha virt. eigenvalues --    7.43364   7.98399   8.03649   8.10279   8.62972
 Alpha virt. eigenvalues --   10.59100  13.44672  13.46858  13.47773  13.52059
 Alpha virt. eigenvalues --   14.90202  15.00694  15.01490  15.38199
          Condensed to atoms (all electrons):
               1          2          3          4          5          6
     1  Pb   2.882936   0.082850   0.080039  -0.004952   0.000138  -0.000147
     2  Cl   0.082850   7.478621  -0.004700   0.000000   0.000001  -0.000000
     3  Cl   0.080039  -0.004700   7.465379  -0.022475   0.000046  -0.000132
     4  C   -0.004952   0.000000  -0.022475   4.873973   0.395633   0.399045
     5  H    0.000138   0.000001   0.000046   0.395633   0.532789  -0.021836
     6  H   -0.000147  -0.000000  -0.000132   0.399045  -0.021836   0.519523
     7  H   -0.001171  -0.000008   0.048057   0.349587  -0.019975  -0.019191
     8  C   -0.042892   0.000065   0.012949   0.291103  -0.032132  -0.028528
     9  N    0.006894   0.000030  -0.005282  -0.049848  -0.000938   0.000018
    10  C   -0.004796  -0.022314   0.000001   0.000000   0.000000  -0.000000
    11  H    0.000135   0.000053   0.000001   0.000000  -0.000000   0.000000
    12  H   -0.000146  -0.000151  -0.000000  -0.000000   0.000000  -0.000000
    13  H   -0.001230   0.047649  -0.000008  -0.000000   0.000000  -0.000000
    14  C   -0.042808   0.012994   0.000069   0.000009   0.000002  -0.000000
    15  N    0.006461  -0.005303   0.000031   0.000002  -0.000000  -0.000000
    16  C   -0.000792   0.000026  -0.014762  -0.000000  -0.000000   0.000000
    17  H    0.000237   0.000392   0.000223   0.000000  -0.000000   0.000000
    18  H    0.000746   0.016335  -0.000742  -0.000000   0.000000  -0.000000
    19  H    0.000385  -0.001142   0.035093   0.000005  -0.000000  -0.000000
    20  C   -0.017683   0.007072   0.011335   0.000009  -0.000000   0.000000
    21  N    0.003997  -0.006514  -0.006247  -0.000002  -0.000000   0.000000
    22  C   -0.001414   0.000272   0.000214  -0.000035  -0.000108  -0.000003
    23  H    0.000091   0.000022   0.000029  -0.000001   0.000000  -0.000000
    24  H   -0.000070   0.000008  -0.000001   0.000009   0.000004   0.000000
    25  H   -0.000078  -0.000001   0.000001  -0.000116   0.000108  -0.000003
    26  C   -0.030581   0.003531   0.003079  -0.000422   0.000227   0.000046
    27  N   -0.049989  -0.004716  -0.004161   0.002250   0.000086   0.000073
               7          8          9         10         11         12
     1  Pb  -0.001171  -0.042892   0.006894  -0.004796   0.000135  -0.000146
     2  Cl  -0.000008   0.000065   0.000030  -0.022314   0.000053  -0.000151
     3  Cl   0.048057   0.012949  -0.005282   0.000001   0.000001  -0.000000
     4  C    0.349587   0.291103  -0.049848   0.000000   0.000000  -0.000000
     5  H   -0.019975  -0.032132  -0.000938   0.000000  -0.000000   0.000000
     6  H   -0.019191  -0.028528   0.000018  -0.000000   0.000000  -0.000000
     7  H    0.571031  -0.035545  -0.003529  -0.000000   0.000000  -0.000000
     8  C   -0.035545   4.855617   0.992256   0.000009   0.000002  -0.000000
     9  N   -0.003529   0.992256   6.226521   0.000001  -0.000000  -0.000000
    10  C   -0.000000   0.000009   0.000001   4.875602   0.395797   0.398866
    11  H    0.000000   0.000002  -0.000000   0.395797   0.532880  -0.021927
    12  H   -0.000000  -0.000000  -0.000000   0.398866  -0.021927   0.518351
    13  H   -0.000000  -0.000005  -0.000002   0.349325  -0.020098  -0.019022
    14  C   -0.000005   0.000242   0.000056   0.290943  -0.032433  -0.028173
    15  N   -0.000002   0.000074   0.000294  -0.049435  -0.000934   0.000017
    16  C    0.000003   0.000003  -0.000000   0.000001  -0.000000   0.000000
    17  H   -0.000000  -0.000000   0.000000   0.000000  -0.000000   0.000000
    18  H    0.000000  -0.000000  -0.000000   0.000002   0.000000  -0.000000
    19  H   -0.000011  -0.000010   0.000003  -0.000000  -0.000000  -0.000000
    20  C   -0.000016   0.000015   0.000015   0.000008  -0.000000   0.000000
    21  N    0.000006   0.000001   0.000007  -0.000002  -0.000000   0.000000
    22  C    0.000052   0.000080  -0.000006  -0.000121  -0.000185  -0.000002
    23  H    0.000006  -0.000002  -0.000001   0.000001   0.000006  -0.000000
    24  H    0.000002  -0.000005  -0.000001  -0.000164   0.000304  -0.000004
    25  H   -0.000012   0.000086   0.000016   0.000015  -0.000005   0.000000
    26  C    0.000581   0.000045  -0.000273  -0.000335   0.000238   0.000054
    27  N   -0.000089   0.000619  -0.004021   0.002112   0.000017   0.000071
              13         14         15         16         17         18
     1  Pb  -0.001230  -0.042808   0.006461  -0.000792   0.000237   0.000746
     2  Cl   0.047649   0.012994  -0.005303   0.000026   0.000392   0.016335
     3  Cl  -0.000008   0.000069   0.000031  -0.014762   0.000223  -0.000742
     4  C   -0.000000   0.000009   0.000002  -0.000000   0.000000  -0.000000
     5  H    0.000000   0.000002  -0.000000  -0.000000  -0.000000   0.000000
     6  H   -0.000000  -0.000000  -0.000000   0.000000   0.000000  -0.000000
     7  H   -0.000000  -0.000005  -0.000002   0.000003  -0.000000   0.000000
     8  C   -0.000005   0.000242   0.000074   0.000003  -0.000000  -0.000000
     9  N   -0.000002   0.000056   0.000294  -0.000000   0.000000  -0.000000
    10  C    0.349325   0.290943  -0.049435   0.000001   0.000000   0.000002
    11  H   -0.020098  -0.032433  -0.000934  -0.000000  -0.000000   0.000000
    12  H   -0.019022  -0.028173   0.000017   0.000000   0.000000  -0.000000
    13  H    0.570995  -0.035666  -0.003474  -0.000004  -0.000000  -0.000004
    14  C   -0.035666   4.854666   0.992381  -0.000001  -0.000000  -0.000002
    15  N   -0.003474   0.992381   6.226859   0.000001   0.000000   0.000001
    16  C   -0.000004  -0.000001   0.000001   4.859179   0.384628   0.379828
    17  H   -0.000000  -0.000000   0.000000   0.384628   0.533866  -0.020234
    18  H   -0.000004  -0.000002   0.000001   0.379828  -0.020234   0.551876
    19  H    0.000001  -0.000001  -0.000000   0.359010  -0.018974  -0.021284
    20  C   -0.000010   0.000022   0.000010   0.300426  -0.029069  -0.036116
    21  N    0.000007   0.000001   0.000006  -0.038365  -0.000127  -0.002387
    22  C    0.000079   0.000143   0.000008   0.000000   0.000000  -0.000000
    23  H    0.000002  -0.000001  -0.000001   0.000000   0.000000  -0.000000
    24  H   -0.000028   0.000074   0.000014  -0.000000  -0.000000  -0.000000
    25  H    0.000004  -0.000006  -0.000001  -0.000000  -0.000000   0.000000
    26  C    0.000650  -0.000119  -0.000393   0.000004   0.000000  -0.000002
    27  N   -0.000167   0.000842  -0.004028  -0.000005   0.000000   0.000002
              19         20         21         22         23         24
     1  Pb   0.000385  -0.017683   0.003997  -0.001414   0.000091  -0.000070
     2  Cl  -0.001142   0.007072  -0.006514   0.000272   0.000022   0.000008
     3  Cl   0.035093   0.011335  -0.006247   0.000214   0.000029  -0.000001
     4  C    0.000005   0.000009  -0.000002  -0.000035  -0.000001   0.000009
     5  H   -0.000000  -0.000000  -0.000000  -0.000108   0.000000   0.000004
     6  H   -0.000000   0.000000   0.000000  -0.000003  -0.000000   0.000000
     7  H   -0.000011  -0.000016   0.000006   0.000052   0.000006   0.000002
     8  C   -0.000010   0.000015   0.000001   0.000080  -0.000002  -0.000005
     9  N    0.000003   0.000015   0.000007  -0.000006  -0.000001  -0.000001
    10  C   -0.000000   0.000008  -0.000002  -0.000121   0.000001  -0.000164
    11  H   -0.000000  -0.000000  -0.000000  -0.000185   0.000006   0.000304
    12  H   -0.000000   0.000000   0.000000  -0.000002  -0.000000  -0.000004
    13  H    0.000001  -0.000010   0.000007   0.000079   0.000002  -0.000028
    14  C   -0.000001   0.000022   0.000001   0.000143  -0.000001   0.000074
    15  N   -0.000000   0.000010   0.000006   0.000008  -0.000001   0.000014
    16  C    0.359010   0.300426  -0.038365   0.000000   0.000000  -0.000000
    17  H   -0.018974  -0.029069  -0.000127   0.000000   0.000000  -0.000000
    18  H   -0.021284  -0.036116  -0.002387  -0.000000  -0.000000  -0.000000
    19  H    0.566442  -0.033242  -0.003485  -0.000000  -0.000000   0.000000
    20  C   -0.033242   4.846814   0.969021  -0.000000  -0.000000  -0.000000
    21  N   -0.003485   0.969021   6.256202   0.000000   0.000000  -0.000000
    22  C   -0.000000  -0.000000   0.000000   4.748772   0.399908   0.401114
    23  H   -0.000000  -0.000000   0.000000   0.399908   0.524569  -0.020563
    24  H    0.000000  -0.000000  -0.000000   0.401114  -0.020563   0.528196
    25  H   -0.000000  -0.000000  -0.000000   0.402519  -0.020395  -0.021786
    26  C   -0.000002  -0.000004   0.000008   0.318571  -0.032605  -0.033973
    27  N    0.000001   0.000087   0.000043  -0.037928  -0.001570  -0.002118
              25         26         27
     1  Pb  -0.000078  -0.030581  -0.049989
     2  Cl  -0.000001   0.003531  -0.004716
     3  Cl   0.000001   0.003079  -0.004161
     4  C   -0.000116  -0.000422   0.002250
     5  H    0.000108   0.000227   0.000086
     6  H   -0.000003   0.000046   0.000073
     7  H   -0.000012   0.000581  -0.000089
     8  C    0.000086   0.000045   0.000619
     9  N    0.000016  -0.000273  -0.004021
    10  C    0.000015  -0.000335   0.002112
    11  H   -0.000005   0.000238   0.000017
    12  H    0.000000   0.000054   0.000071
    13  H    0.000004   0.000650  -0.000167
    14  C   -0.000006  -0.000119   0.000842
    15  N   -0.000001  -0.000393  -0.004028
    16  C   -0.000000   0.000004  -0.000005
    17  H   -0.000000   0.000000   0.000000
    18  H    0.000000  -0.000002   0.000002
    19  H   -0.000000  -0.000002   0.000001
    20  C   -0.000000  -0.000004   0.000087
    21  N   -0.000000   0.000008   0.000043
    22  C    0.402519   0.318571  -0.037928
    23  H   -0.020395  -0.032605  -0.001570
    24  H   -0.021786  -0.033973  -0.002118
    25  H    0.527472  -0.035065  -0.001904
    26  C   -0.035065   4.897040   0.847838
    27  N   -0.001904   0.847838   6.439363
 Mulliken charges:
               1
     1  Pb   1.133839
     2  Cl  -0.605072
     3  Cl  -0.598034
     4  C   -0.233773
     5  H    0.145956
     6  H    0.151136
     7  H    0.110231
     8  C   -0.014045
     9  N   -0.162209
    10  C   -0.235515
    11  H    0.146148
    12  H    0.152066
    13  H    0.111006
    14  C   -0.013229
    15  N   -0.162584
    16  C   -0.229178
    17  H    0.149058
    18  H    0.131981
    19  H    0.117213
    20  C   -0.018694
    21  N   -0.172168
    22  C   -0.231930
    23  H    0.150505
    24  H    0.148988
    25  H    0.149152
    26  C    0.061863
    27  N   -0.182710
 Sum of Mulliken charges =  -0.00000
 Mulliken charges with hydrogens summed into heavy atoms:
               1
     1  Pb   1.133839
     2  Cl  -0.605072
     3  Cl  -0.598034
     4  C    0.173550
     8  C   -0.014045
     9  N   -0.162209
    10  C    0.173706
    14  C   -0.013229
    15  N   -0.162584
    16  C    0.169074
    20  C   -0.018694
    21  N   -0.172168
    22  C    0.216715
    26  C    0.061863
    27  N   -0.182710
 Electronic spatial extent (au):  <R**2>=           4934.4429
 Charge=             -0.0000 electrons
 Dipole moment (field-independent basis, Debye):
    X=             10.8424    Y=              0.2708    Z=              4.7335  Tot=             11.8338
 Quadrupole moment (field-independent basis, Debye-Ang):
   XX=            -57.0263   YY=            -95.0882   ZZ=           -122.7233
   XY=             -0.0837   XZ=             14.9788   YZ=              0.2902
 Traceless Quadrupole moment (field-independent basis, Debye-Ang):
   XX=             34.5863   YY=             -3.4756   ZZ=            -31.1107
   XY=             -0.0837   XZ=             14.9788   YZ=              0.2902
 Octapole moment (field-independent basis, Debye-Ang**2):
  XXX=             19.3004  YYY=              7.8798  ZZZ=            -25.1483  XYY=             86.5174
  XXY=             -5.1304  XXZ=            102.1989  XZZ=             -0.4045  YZZ=             -0.5547
  YYZ=            -35.6221  XYZ=              3.6560
 Hexadecapole moment (field-independent basis, Debye-Ang**3):
 XXXX=          -2439.6287 YYYY=          -2074.4919 ZZZZ=          -1133.5313 XXXY=             -8.8724
 XXXZ=             93.0393 YYYX=             -2.1125 YYYZ=              5.4547 ZZZX=            139.5311
 ZZZY=              3.3004 XXYY=           -849.8908 XXZZ=           -648.2250 YYZZ=           -697.8176
 XXYZ=             -5.9109 YYXZ=             51.6897 ZZXY=              3.8410
 N-N= 7.413316637604D+02 E-N=-2.784693267557D+03  KE= 5.393994774791D+02
 Unable to Open any file for archive entry.
 1\1\GINC-MPCL125\SP\RCAM-B3LYP TD-FC\Gen\C8H12Cl2N4Pb1\EDBA4025\11-Nov
 -2020\0\\# cam-b3lyp/gen pseudo=read TD=NStates=10 Geom=Check Guess=Re
 ad empiricaldispersion=gd3bj SCRF=(Solvent=CH3CN)\\PbCl2_acn\\0,1\Pb,0
 ,-0.3745419278,-0.0094602269,-0.536626922\Cl,0,-0.8632249215,-1.969470
 0651,1.211814452\Cl,0,-1.0160382963,1.8967083369,1.2308960983\C,0,1.91
 96217607,3.7360238746,0.0483784928\H,0,2.9501591394,3.5360878882,0.399
 9948282\H,0,1.8491051771,4.7850382129,-0.2975775372\H,0,1.2022547669,3
 .5694800658,0.8787980002\C,0,1.5707628333,2.8237376672,-1.0252675262\N
 ,0,1.2629000249,2.0604083771,-1.8655946032\C,0,2.1946459757,-3.5831368
 671,0.0030811495\H,0,3.2130287588,-3.3185453102,0.3477036471\H,0,2.191
 3441331,-4.6307036563,-0.3542880739\H,0,1.4755870661,-3.4746626736,0.8
 416276689\C,0,1.7750913608,-2.6845729452,-1.0567360296\N,0,1.409175855
 7,-1.9338319845,-1.8850398754\C,0,-4.1514289853,-0.1047241989,1.427897
 6178\H,0,-5.2403670772,0.0920050668,1.4339925986\H,0,-3.9402648315,-1.
 0751812325,1.9168225009\H,0,-3.6185157236,0.6984820204,1.9757225655\C,
 0,-3.6432318961,-0.1335541126,0.0696791047\N,0,-3.191897634,-0.1472329
 647,-1.0169394437\C,0,4.0989167444,0.0481209525,2.059377055\H,0,3.8890
 141274,0.1472276473,3.1416876159\H,0,4.632814521,-0.9047363277,1.87739
 93311\H,0,4.7373386435,0.8916181404,1.732924041\C,0,2.8547948826,0.059
 3879593,1.3151272117\N,0,1.8511555221,0.065986356,0.7119160321\\Versio
 n=ES64L-G16RevC.01\State=1-A\HF=-564.4638454\RMSD=6.751e-09\PG=C01 [X(
 C8H12Cl2N4Pb1)]\\@
 The archive entry for this job was punched.


 ONE OF THE BENEFITS OF A COLLEGE EDUCATION
 IS TO SHOW THE BOY ITS LITTLE AVAIL 
                                    EMERSON IN 'CULTURE'
 Job cpu time:       0 days  2 hours  8 minutes 38.1 seconds.
 Elapsed time:       0 days  0 hours 25 minutes 44.6 seconds.
 File lengths (MBytes):  RWF=   1695 Int=      0 D2E=      0 Chk=    536 Scr=      1
 Normal termination of Gaussian 16 at Wed Nov 11 21:38:32 2020.
