 Entering Gaussian System, Link 0=g16
 Input=02-PbCl2_DMF_22800263.com
 Output=02-PbCl2_DMF_22800263.log
 Initial command:
 /cm/shared/uniol/software/gaussian/g16.c01/g16/l1.exe "/scratch/22800263_edba4025/Gau-18055.inp" -scrdir="/scratch/22800263_edba4025/"
 Entering Link 1 = /cm/shared/uniol/software/gaussian/g16.c01/g16/l1.exe PID=     18056.
  
 Copyright (c) 1988-2019, Gaussian, Inc.  All Rights Reserved.
  
 This is part of the Gaussian(R) 16 program.  It is based on
 the Gaussian(R) 09 system (copyright 2009, Gaussian, Inc.),
 the Gaussian(R) 03 system (copyright 2003, Gaussian, Inc.),
 the Gaussian(R) 98 system (copyright 1998, Gaussian, Inc.),
 the Gaussian(R) 94 system (copyright 1995, Gaussian, Inc.),
 the Gaussian 92(TM) system (copyright 1992, Gaussian, Inc.),
 the Gaussian 90(TM) system (copyright 1990, Gaussian, Inc.),
 the Gaussian 88(TM) system (copyright 1988, Gaussian, Inc.),
 the Gaussian 86(TM) system (copyright 1986, Carnegie Mellon
 University), and the Gaussian 82(TM) system (copyright 1983,
 Carnegie Mellon University). Gaussian is a federally registered
 trademark of Gaussian, Inc.
  
 This software contains proprietary and confidential information,
 including trade secrets, belonging to Gaussian, Inc.
  
 This software is provided under written license and may be
 used, copied, transmitted, or stored only in accord with that
 written license.
  
 The following legend is applicable only to US Government
 contracts under FAR:
  
                    RESTRICTED RIGHTS LEGEND
  
 Use, reproduction and disclosure by the US Government is
 subject to restrictions as set forth in subparagraphs (a)
 and (c) of the Commercial Computer Software - Restricted
 Rights clause in FAR 52.227-19.
  
 Gaussian, Inc.
 340 Quinnipiac St., Bldg. 40, Wallingford CT 06492
  
  
 ---------------------------------------------------------------
 Warning -- This program may not be used in any manner that
 competes with the business of Gaussian, Inc. or will provide
 assistance to any competitor of Gaussian, Inc.  The licensee
 of this program is prohibited from giving any competitor of
 Gaussian, Inc. access to this program.  By using this program,
 the user acknowledges that Gaussian, Inc. is engaged in the
 business of creating and licensing software in the field of
 computational chemistry and represents and warrants to the
 licensee that it is not a competitor of Gaussian, Inc. and that
 it will not use this program in any manner prohibited above.
 ---------------------------------------------------------------
  

 Cite this work as:
 Gaussian 16, Revision C.01,
 M. J. Frisch, G. W. Trucks, H. B. Schlegel, G. E. Scuseria, 
 M. A. Robb, J. R. Cheeseman, G. Scalmani, V. Barone, 
 G. A. Petersson, H. Nakatsuji, X. Li, M. Caricato, A. V. Marenich, 
 J. Bloino, B. G. Janesko, R. Gomperts, B. Mennucci, H. P. Hratchian, 
 J. V. Ortiz, A. F. Izmaylov, J. L. Sonnenberg, D. Williams-Young, 
 F. Ding, F. Lipparini, F. Egidi, J. Goings, B. Peng, A. Petrone, 
 T. Henderson, D. Ranasinghe, V. G. Zakrzewski, J. Gao, N. Rega, 
 G. Zheng, W. Liang, M. Hada, M. Ehara, K. Toyota, R. Fukuda, 
 J. Hasegawa, M. Ishida, T. Nakajima, Y. Honda, O. Kitao, H. Nakai, 
 T. Vreven, K. Throssell, J. A. Montgomery, Jr., J. E. Peralta, 
 F. Ogliaro, M. J. Bearpark, J. J. Heyd, E. N. Brothers, K. N. Kudin, 
 V. N. Staroverov, T. A. Keith, R. Kobayashi, J. Normand, 
 K. Raghavachari, A. P. Rendell, J. C. Burant, S. S. Iyengar, 
 J. Tomasi, M. Cossi, J. M. Millam, M. Klene, C. Adamo, R. Cammi, 
 J. W. Ochterski, R. L. Martin, K. Morokuma, O. Farkas, 
 J. B. Foresman, and D. J. Fox, Gaussian, Inc., Wallingford CT, 2019.
 
 ******************************************
 Gaussian 16:  ES64L-G16RevC.01  3-Jul-2019
                11-Nov-2020 
 ******************************************
 %oldChk=01-PbCl2_DMF
 %chk=02-PbCl2_DMF
 %mem=16GB
 %NProcShared=5
 Will use up to    5 processors via shared memory.
 Copying data from "01-PbCl2_DMF.chk" to current chk file "02-PbCl2_DMF.chk"
 IOpt=  2 FromEx=T IUOpen= 4 IOptOp= 5 NList=   0 IFRang= 0 IUIn= 4 IUOut= 2.
 ----------------------------------------------------------------------
 # cam-b3lyp/gen pseudo=read TD=NStates=10 Geom=Check Guess=Read empiri
 caldispersion=gd3bj SCRF=(Solvent=n,n-DiMethylFormamide)
 ----------------------------------------------------------------------
 1/29=2,38=1,172=1/1;
 2/12=2,40=1/2;
 3/5=7,11=9,14=-4,16=1,17=8,25=1,30=1,70=2201,72=148,74=-40,116=-2,124=41/1,2,3,8;
 4/5=1/1;
 5/5=2,38=6,53=148/2;
 8/6=1,10=1,108=10/1;
 9/41=10,42=1,70=2/14;
 6/7=2,8=2,9=2,10=2/1;
 99/5=1,9=1/99;
 ---------
 PbCl2_DMF
 ---------
 Structure from the checkpoint file:  "02-PbCl2_DMF.chk"
 Charge =  0 Multiplicity = 1
 No Z-Matrix found in chk file; cartesian coordinates used.
  Pb                                               -0.053908004575     -0.895447138639     -0.330342916334
  Cl                                                0.908919133196     -2.406707612064     -2.356428359753
  Cl                                               -1.028864762942     -2.967698452921      1.143637495932
  O                                                 1.070507429667      1.416466790705     -1.415824619646
  C                                                 0.975305997748      2.643244786367     -1.209440191137
  H                                                 1.871810994810      3.280319793868     -1.005805379350
  N                                                -0.175545348152      3.356604974115     -1.210792954717
  C                                                -1.454082135479      2.713637098585     -1.469819163601
  C                                                -0.179292891048      4.787545744595     -0.953688369214
  H                                                 0.854845050803      5.134313846691     -0.771096164007
  H                                                -0.799299020691      5.022036132911     -0.063594126378
  H                                                -0.595697550554      5.338455753341     -1.822120007841
  H                                                -2.095846186270      2.739056291563     -0.564674416311
  H                                                -1.982269873615      3.235778862959     -2.293047320254
  H                                                -1.266644187507      1.664950272122     -1.755657261266
  O                                                -0.559820768560      1.114782408745      1.579410293742
  C                                                -0.233765918914      2.267033919310      1.929333674287
  H                                                -0.994994561313      3.070128284239      2.096043030488
  N                                                 1.028741984531      2.702654221991      2.152196807115
  C                                                 2.173423374084      1.814720945989      2.012082816874
  C                                                 1.288464555248      4.067356457614      2.582219362532
  H                                                 0.334277214811      4.620449137622      2.662104424538
  H                                                 1.945392269923      4.585947318724      1.853382045005
  H                                                 1.791969737353      4.074477933242      3.571253433663
  H                                                 2.896724586876      2.238298481638      1.285035106357
  H                                                 2.689545612293      1.700391632235      2.988164840361
  H                                                 1.834196253015      0.829061124987      1.653653053199
  O                                                 2.164498623094     -1.241837587374      0.818964935162
  C                                                 3.149428853682     -1.936452503546      0.460411667829
  H                                                 3.406998316984     -2.888686867122      0.983020661821
  N                                                 3.998303798310     -1.637852898535     -0.536809353749
  C                                                 3.831447929700     -0.443168794081     -1.354382238758
  C                                                 5.081028304373     -2.542502097441     -0.893179916413
  H                                                 5.105432058372     -3.391144415149     -0.185338094218
  H                                                 6.053039372459     -2.010435490711     -0.856803499204
  H                                                 4.929949898392     -2.932710729548     -1.920455865457
  H                                                 4.765822204510      0.154105064994     -1.332561140295
  H                                                 3.611870687033     -0.736529804875     -2.400252353609
  H                                                 2.987073144807      0.156076065062     -0.972497094806
  O                                                -2.276806335003     -0.722827002398     -1.687254290479
  C                                                -3.356563726889     -0.086320008833     -1.650329129903
  H                                                -3.853230507805      0.263594159174     -2.587950575811
  N                                                -4.037001826593      0.245135693891     -0.537157100512
  C                                                -3.551791497456     -0.159153563826      0.780790767934
  C                                                -5.225823457086      1.083694058908     -0.606244106528
  H                                                -5.462563188921      1.300861283807     -1.664092133195
  H                                                -5.054207964710      2.042487161907     -0.074851165622
  H                                                -6.089830660386      0.570469764227     -0.138514191338
  H                                                -2.808173336473      0.563692460924      1.178681078566
  H                                                -4.412190885772     -0.221891940802      1.471798722768
  H                                                -3.064962789357     -1.151011019189      0.710809281534
 Recover connectivity data from disk.
 Stoichiometry    C12H28Cl2N4O4Pb
 Framework group  C1[X(C12H28Cl2N4O4Pb)]
 Deg. of freedom   147
 Full point group                 C1      NOp   1
 Largest Abelian subgroup         C1      NOp   1
 Largest concise Abelian subgroup C1      NOp   1
                         Standard orientation:                         
 ---------------------------------------------------------------------
 Center     Atomic      Atomic             Coordinates (Angstroms)
 Number     Number       Type             X           Y           Z
 ---------------------------------------------------------------------
      1         82           0        0.383771   -0.814565    0.082640
      2         17           0        2.133316   -1.951773   -1.638353
      3         17           0        0.654466   -2.678080    2.050233
      4          8           0        0.082170    1.412142   -1.572153
      5          6           0       -0.692626    2.388274   -1.631310
      6          1           0       -0.317006    3.441691   -1.647930
      7          7           0       -2.043616    2.320783   -1.691429
      8          6           0       -2.729261    1.038194   -1.695197
      9          6           0       -2.859401    3.522592   -1.753551
     10          1           0       -2.206628    4.415172   -1.738842
     11          1           0       -3.551369    3.569221   -0.887140
     12          1           0       -3.465133    3.534834   -2.683071
     13          1           0       -3.323325    0.908845   -0.766676
     14          1           0       -3.413901    0.975721   -2.565073
     15          1           0       -1.973267    0.237654   -1.759937
     16          8           0       -1.259826    0.948884    1.543109
     17          6           0       -1.651953    2.131649    1.604292
     18          1           0       -2.739486    2.390311    1.655161
     19          7           0       -0.861878    3.231153    1.619520
     20          6           0        0.589057    3.123271    1.580732
     21          6           0       -1.431829    4.565426    1.717784
     22          1           0       -2.534881    4.497213    1.755072
     23          1           0       -1.138388    5.178767    0.840629
     24          1           0       -1.072004    5.075601    2.635392
     25          1           0        0.990399    3.697776    0.720470
     26          1           0        1.027828    3.540283    2.511200
     27          1           0        0.877727    2.064604    1.476017
     28          8           0        2.352138    0.400092    1.088802
     29          6           0        3.574602    0.308604    0.808890
     30          1           0        4.291442   -0.191702    1.503186
     31          7           0        4.164175    0.791169   -0.297336
     32          6           0        3.402900    1.468649   -1.338978
     33          6           0        5.584747    0.586295   -0.537508
     34          1           0        6.040777    0.081803    0.333902
     35          1           0        6.090477    1.559434   -0.700176
     36          1           0        5.732626   -0.043790   -1.438345
     37          1           0        3.841846    2.469795   -1.526864
     38          1           0        3.440996    0.873862   -2.273268
     39          1           0        2.348796    1.567055   -1.027400
     40          8           0       -1.480164   -2.218084   -1.087045
     41          6           0       -2.731441   -2.298948   -1.099158
     42          1           0       -3.287695   -2.507849   -2.045305
     43          7           0       -3.539542   -2.157406   -0.031942
     44          6           0       -2.982817   -1.911751    1.296807
     45          6           0       -4.988233   -2.161172   -0.182049
     46          1           0       -5.248730   -2.359576   -1.237998
     47          1           0       -5.409948   -1.177554    0.110810
     48          1           0       -5.442106   -2.944518    0.457518
     49          1           0       -2.792079   -0.830214    1.463202
     50          1           0       -3.697186   -2.281671    2.054800
     51          1           0       -2.022264   -2.451623    1.404305
 ---------------------------------------------------------------------
 Rotational constants (GHZ):           0.1822954           0.1489709           0.1096543
 General basis read from cards:  (5D, 7F)
 ======================================================================================================
                                       Pseudopotential Parameters
 ======================================================================================================
  Center     Atomic      Valence      Angular      Power
  Number     Number     Electrons     Momentum     of R      Exponent        Coefficient   SO-Coeffient
 ======================================================================================================
    1         82            4
                                      G and up 
                                                     0      376.5803786       -0.17896050    0.00000000
                                                     1       86.4840014      -54.39723370    0.00000000
                                                     2       26.6784276     -199.70617590    0.00000000
                                                     2        9.4261986      -79.12239410    0.00000000
                                                     2        2.7101719      -24.98690200    0.00000000
                                                     2        0.8792031       -4.43979390    0.00000000
                                      S - G
                                                     0      132.4248796        2.81153860    0.00000000
                                                     1       47.2376044       65.03672050    0.00000000
                                                     2       17.6312727      212.78685450    0.00000000
                                                     2        5.4744712       72.10531750    0.00000000
                                                     2        1.2634856       33.01409400    0.00000000
                                                     2        0.7651447       -5.77084610    0.00000000
                                      P - G
                                                     0       67.8966454        4.87549110    0.00000000
                                                     1       24.9898225       63.91481020    0.00000000
                                                     2       10.7052939      148.10643580    0.00000000
                                                     2        3.2792568       47.31063010    0.00000000
                                                     2        0.8452522       21.03067020    0.00000000
                                                     2        0.6416245       -7.09307720    0.00000000
                                      D - G
                                                     0       68.8336005        3.21613880    0.00000000
                                                     1       24.2815874       55.73860860    0.00000000
                                                     2        9.4532762      121.41683510    0.00000000
                                                     2        2.4788185       19.34560640    0.00000000
                                                     2        2.4789161       15.36751680    0.00000000
                                                     2        0.5551738        6.12987240    0.00000000
                                      F - G
                                                     0      128.1021322        4.13536820    0.00000000
                                                     1       54.8029154       67.51284460    0.00000000
                                                     2       24.5529308      258.73731070    0.00000000
                                                     2        8.1144792      113.24782640    0.00000000
                                                     2        1.6931290       34.16802010    0.00000000
                                                     2        0.7670500       -6.55319560    0.00000000
    2         17            7
                                      D and up 
                                                     1       94.8130000      -10.00000000    0.00000000
                                                     2      165.6440000       66.27291700    0.00000000
                                                     2       30.8317000      -28.96859500    0.00000000
                                                     2       10.5841000      -12.86633700    0.00000000
                                                     2        3.7704000       -1.71021700    0.00000000
                                      S - D
                                                     0      128.8391000        3.00000000    0.00000000
                                                     1      120.3786000       12.85285100    0.00000000
                                                     2       63.5622000      275.67239800    0.00000000
                                                     2       18.0695000      115.67771200    0.00000000
                                                     2        3.8142000       35.06060900    0.00000000
                                      P - D
                                                     0      216.5263000        5.00000000    0.00000000
                                                     1       46.5723000        7.47948600    0.00000000
                                                     2      147.4685000      613.03200000    0.00000000
                                                     2       48.9869000      280.80068500    0.00000000
                                                     2       13.2096000      107.87882400    0.00000000
                                                     2        3.1831000       15.34395600    0.00000000
    3         17            7
                                      D and up 
                                                     1       94.8130000      -10.00000000    0.00000000
                                                     2      165.6440000       66.27291700    0.00000000
                                                     2       30.8317000      -28.96859500    0.00000000
                                                     2       10.5841000      -12.86633700    0.00000000
                                                     2        3.7704000       -1.71021700    0.00000000
                                      S - D
                                                     0      128.8391000        3.00000000    0.00000000
                                                     1      120.3786000       12.85285100    0.00000000
                                                     2       63.5622000      275.67239800    0.00000000
                                                     2       18.0695000      115.67771200    0.00000000
                                                     2        3.8142000       35.06060900    0.00000000
                                      P - D
                                                     0      216.5263000        5.00000000    0.00000000
                                                     1       46.5723000        7.47948600    0.00000000
                                                     2      147.4685000      613.03200000    0.00000000
                                                     2       48.9869000      280.80068500    0.00000000
                                                     2       13.2096000      107.87882400    0.00000000
                                                     2        3.1831000       15.34395600    0.00000000
    4          8
                                   No pseudopotential on this center.
    5          6
                                   No pseudopotential on this center.
    6          1
                                   No pseudopotential on this center.
    7          7
                                   No pseudopotential on this center.
    8          6
                                   No pseudopotential on this center.
    9          6
                                   No pseudopotential on this center.
   10          1
                                   No pseudopotential on this center.
   11          1
                                   No pseudopotential on this center.
   12          1
                                   No pseudopotential on this center.
   13          1
                                   No pseudopotential on this center.
   14          1
                                   No pseudopotential on this center.
   15          1
                                   No pseudopotential on this center.
   16          8
                                   No pseudopotential on this center.
   17          6
                                   No pseudopotential on this center.
   18          1
                                   No pseudopotential on this center.
   19          7
                                   No pseudopotential on this center.
   20          6
                                   No pseudopotential on this center.
   21          6
                                   No pseudopotential on this center.
   22          1
                                   No pseudopotential on this center.
   23          1
                                   No pseudopotential on this center.
   24          1
                                   No pseudopotential on this center.
   25          1
                                   No pseudopotential on this center.
   26          1
                                   No pseudopotential on this center.
   27          1
                                   No pseudopotential on this center.
   28          8
                                   No pseudopotential on this center.
   29          6
                                   No pseudopotential on this center.
   30          1
                                   No pseudopotential on this center.
   31          7
                                   No pseudopotential on this center.
   32          6
                                   No pseudopotential on this center.
   33          6
                                   No pseudopotential on this center.
   34          1
                                   No pseudopotential on this center.
   35          1
                                   No pseudopotential on this center.
   36          1
                                   No pseudopotential on this center.
   37          1
                                   No pseudopotential on this center.
   38          1
                                   No pseudopotential on this center.
   39          1
                                   No pseudopotential on this center.
   40          8
                                   No pseudopotential on this center.
   41          6
                                   No pseudopotential on this center.
   42          1
                                   No pseudopotential on this center.
   43          7
                                   No pseudopotential on this center.
   44          6
                                   No pseudopotential on this center.
   45          6
                                   No pseudopotential on this center.
   46          1
                                   No pseudopotential on this center.
   47          1
                                   No pseudopotential on this center.
   48          1
                                   No pseudopotential on this center.
   49          1
                                   No pseudopotential on this center.
   50          1
                                   No pseudopotential on this center.
   51          1
                                   No pseudopotential on this center.
 ======================================================================================================
 There are  1144 symmetry adapted cartesian basis functions of A   symmetry.
 There are  1016 symmetry adapted basis functions of A   symmetry.
  1016 basis functions,  1552 primitive gaussians,  1144 cartesian basis functions
    89 alpha electrons       89 beta electrons
       nuclear repulsion energy      1996.5159526427 Hartrees.
 NAtoms=   51 NActive=   51 NUniq=   51 SFac= 1.00D+00 NAtFMM=   60 NAOKFM=F Big=F
 Integral buffers will be    131072 words long.
 Raffenetti 1 integral format.
 Two-electron integral symmetry is turned on.
 Nuclear repulsion after empirical dispersion term =     1996.4587348898 Hartrees.
 ------------------------------------------------------------------------------
 Polarizable Continuum Model (PCM)
 =================================
 Model                : PCM.
 Atomic radii         : UFF (Universal Force Field).
 Polarization charges : Total charges.
 Charge compensation  : None.
 Solution method      : On-the-fly selection.
 Cavity type          : Scaled VdW (van der Waals Surface) (Alpha=1.100).
 Cavity algorithm     : GePol (No added spheres)
                        Default sphere list used, NSphG=   51.
                        Lebedev-Laikov grids with approx.  5.0 points / Ang**2.
                        Smoothing algorithm: York/Karplus (Gamma=1.0000).
                        Polarization charges: spherical gaussians, with
                                              point-specific exponents (IZeta= 3).
                        Self-potential: point-specific (ISelfS= 7).
                        Self-field    : sphere-specific E.n sum rule (ISelfD= 2).
 Solvent              : n,n-DiMethylFormamide, Eps=  37.219000 Eps(inf)=   2.046330
 ------------------------------------------------------------------------------
 One-electron integrals computed using PRISM.
   1 Symmetry operations used in ECPInt.
 ECPInt:  NShTT=   72390 NPrTT=  247623 LenC2=   58257 LenP2D=  129982.
 LDataN:  DoStor=T MaxTD1= 7 Len=  274
 NBasis=  1016 RedAO= T EigKep=  5.79D-04  NBF=  1016
 NBsUse=  1016 1.00D-06 EigRej= -1.00D+00 NBFU=  1016
 Defaulting to unpruned grid for atomic number  82.
 Initial guess from the checkpoint file:  "02-PbCl2_DMF.chk"
 B after Tr=    -0.000000    0.000000    0.000000
         Rot=    1.000000    0.000000    0.000000   -0.000000 Ang=   0.00 deg.
 Requested convergence on RMS density matrix=1.00D-08 within 128 cycles.
 Requested convergence on MAX density matrix=1.00D-06.
 Requested convergence on             energy=1.00D-06.
 No special actions if energy rises.
 Defaulting to unpruned grid for atomic number  82.
 Defaulting to unpruned grid for atomic number  82.
 Defaulting to unpruned grid for atomic number  82.
 Defaulting to unpruned grid for atomic number  82.
 Defaulting to unpruned grid for atomic number  82.
 Inv3:  Mode=1 IEnd=    41425968.
 Iteration    1 A*A^-1 deviation from unit magnitude is 3.55D-15 for   1340.
 Iteration    1 A*A^-1 deviation from orthogonality  is 2.11D-15 for   3019    343.
 Iteration    1 A^-1*A deviation from unit magnitude is 3.22D-15 for   2019.
 Iteration    1 A^-1*A deviation from orthogonality  is 2.22D-15 for   2436   1706.
 Error on total polarization charges =  0.01749
 SCF Done:  E(RCAM-B3LYP) =  -1027.52251624     A.U. after   11 cycles
            NFock= 11  Conv=0.74D-08     -V/T= 2.0283
 DoSCS=F DFT=T ScalE2(SS,OS)=  1.000000  1.000000
 ExpMin= 5.98D-02 ExpMax= 1.53D+04 ExpMxC= 5.22D+02 IAcc=3 IRadAn=         5 AccDes= 0.00D+00
 HarFok:  IExCor=  205 AccDes= 0.00D+00 IRadAn=         5 IDoV=-2 UseB2=F ITyADJ=14
 ICtDFT= 12500011 ScaDFX=  1.000000  1.000000  1.000000  1.000000
 Defaulting to unpruned grid for atomic number  82.
 Range of M.O.s used for correlation:    21  1016
 NBasis=  1016 NAE=    89 NBE=    89 NFC=    20 NFV=     0
 NROrb=    996 NOA=    69 NOB=    69 NVA=   927 NVB=   927
 NEqPCM:  Using non-equilibrium solvation (IEInf=1, Eps=  37.2190, EpsInf=   2.0463)
 Inv3:  Mode=1 IEnd=    41425968.
 Iteration    1 A*A^-1 deviation from unit magnitude is 4.44D-15 for   3496.
 Iteration    1 A*A^-1 deviation from orthogonality  is 2.14D-15 for   2237   1857.
 Iteration    1 A^-1*A deviation from unit magnitude is 4.00D-15 for   3496.
 Iteration    1 A^-1*A deviation from orthogonality  is 2.44D-15 for   2436   1706.
 Orbital symmetries:
       Occupied  (A) (A) (A) (A) (A) (A) (A) (A) (A) (A) (A) (A)
                 (A) (A) (A) (A) (A) (A) (A) (A) (A) (A) (A) (A)
                 (A) (A) (A) (A) (A) (A) (A) (A) (A) (A) (A) (A)
                 (A) (A) (A) (A) (A) (A) (A) (A) (A) (A) (A) (A)
                 (A) (A) (A) (A) (A) (A) (A) (A) (A) (A) (A) (A)
                 (A) (A) (A) (A) (A) (A) (A) (A) (A) (A) (A) (A)
                 (A) (A) (A) (A) (A) (A) (A) (A) (A) (A) (A) (A)
                 (A) (A) (A) (A) (A)
       Virtual   (A) (A) (A) (A) (A) (A) (A) (A) (A) (A) (A) (A)
                 (A) (A) (A) (A) (A) (A) (A) (A) (A) (A) (A) (A)
                 (A) (A) (A) (A) (A) (A) (A) (A) (A) (A) (A) (A)
                 (A) (A) (A) (A) (A) (A) (A) (A) (A) (A) (A) (A)
                 (A) (A) (A) (A) (A) (A) (A) (A) (A) (A) (A) (A)
                 (A) (A) (A) (A) (A) (A) (A) (A) (A) (A) (A) (A)
                 (A) (A) (A) (A) (A) (A) (A) (A) (A) (A) (A) (A)
                 (A) (A) (A) (A) (A) (A) (A) (A) (A) (A) (A) (A)
                 (A) (A) (A) (A) (A) (A) (A) (A) (A) (A) (A) (A)
                 (A) (A) (A) (A) (A) (A) (A) (A) (A) (A) (A) (A)
                 (A) (A) (A) (A) (A) (A) (A) (A) (A) (A) (A) (A)
                 (A) (A) (A) (A) (A) (A) (A) (A) (A) (A) (A) (A)
                 (A) (A) (A) (A) (A) (A) (A) (A) (A) (A) (A) (A)
                 (A) (A) (A) (A) (A) (A) (A) (A) (A) (A) (A) (A)
                 (A) (A) (A) (A) (A) (A) (A) (A) (A) (A) (A) (A)
                 (A) (A) (A) (A) (A) (A) (A) (A) (A) (A) (A) (A)
                 (A) (A) (A) (A) (A) (A) (A) (A) (A) (A) (A) (A)
                 (A) (A) (A) (A) (A) (A) (A) (A) (A) (A) (A) (A)
                 (A) (A) (A) (A) (A) (A) (A) (A) (A) (A) (A) (A)
                 (A) (A) (A) (A) (A) (A) (A) (A) (A) (A) (A) (A)
                 (A) (A) (A) (A) (A) (A) (A) (A) (A) (A) (A) (A)
                 (A) (A) (A) (A) (A) (A) (A) (A) (A) (A) (A) (A)
                 (A) (A) (A) (A) (A) (A) (A) (A) (A) (A) (A) (A)
                 (A) (A) (A) (A) (A) (A) (A) (A) (A) (A) (A) (A)
                 (A) (A) (A) (A) (A) (A) (A) (A) (A) (A) (A) (A)
                 (A) (A) (A) (A) (A) (A) (A) (A) (A) (A) (A) (A)
                 (A) (A) (A) (A) (A) (A) (A) (A) (A) (A) (A) (A)
                 (A) (A) (A) (A) (A) (A) (A) (A) (A) (A) (A) (A)
                 (A) (A) (A) (A) (A) (A) (A) (A) (A) (A) (A) (A)
                 (A) (A) (A) (A) (A) (A) (A) (A) (A) (A) (A) (A)
                 (A) (A) (A) (A) (A) (A) (A) (A) (A) (A) (A) (A)
                 (A) (A) (A) (A) (A) (A) (A) (A) (A) (A) (A) (A)
                 (A) (A) (A) (A) (A) (A) (A) (A) (A) (A) (A) (A)
                 (A) (A) (A) (A) (A) (A) (A) (A) (A) (A) (A) (A)
                 (A) (A) (A) (A) (A) (A) (A) (A) (A) (A) (A) (A)
                 (A) (A) (A) (A) (A) (A) (A) (A) (A) (A) (A) (A)
                 (A) (A) (A) (A) (A) (A) (A) (A) (A) (A) (A) (A)
                 (A) (A) (A) (A) (A) (A) (A) (A) (A) (A) (A) (A)
                 (A) (A) (A) (A) (A) (A) (A) (A) (A) (A) (A) (A)
                 (A) (A) (A) (A) (A) (A) (A) (A) (A) (A) (A) (A)
                 (A) (A) (A) (A) (A) (A) (A) (A) (A) (A) (A) (A)
                 (A) (A) (A) (A) (A) (A) (A) (A) (A) (A) (A) (A)
                 (A) (A) (A) (A) (A) (A) (A) (A) (A) (A) (A) (A)
                 (A) (A) (A) (A) (A) (A) (A) (A) (A) (A) (A) (A)
                 (A) (A) (A) (A) (A) (A) (A) (A) (A) (A) (A) (A)
                 (A) (A) (A) (A) (A) (A) (A) (A) (A) (A) (A) (A)
                 (A) (A) (A) (A) (A) (A) (A) (A) (A) (A) (A) (A)
                 (A) (A) (A) (A) (A) (A) (A) (A) (A) (A) (A) (A)
                 (A) (A) (A) (A) (A) (A) (A) (A) (A) (A) (A) (A)
                 (A) (A) (A) (A) (A) (A) (A) (A) (A) (A) (A) (A)
                 (A) (A) (A) (A) (A) (A) (A) (A) (A) (A) (A) (A)
                 (A) (A) (A) (A) (A) (A) (A) (A) (A) (A) (A) (A)
                 (A) (A) (A) (A) (A) (A) (A) (A) (A) (A) (A) (A)
                 (A) (A) (A) (A) (A) (A) (A) (A) (A) (A) (A) (A)
                 (A) (A) (A) (A) (A) (A) (A) (A) (A) (A) (A) (A)
                 (A) (A) (A) (A) (A) (A) (A) (A) (A) (A) (A) (A)
                 (A) (A) (A) (A) (A) (A) (A) (A) (A) (A) (A) (A)
                 (A) (A) (A) (A) (A) (A) (A) (A) (A) (A) (A) (A)
                 (A) (A) (A) (A) (A) (A) (A) (A) (A) (A) (A) (A)
                 (A) (A) (A) (A) (A) (A) (A) (A) (A) (A) (A) (A)
                 (A) (A) (A) (A) (A) (A) (A) (A) (A) (A) (A) (A)
                 (A) (A) (A) (A) (A) (A) (A) (A) (A) (A) (A) (A)
                 (A) (A) (A) (A) (A) (A) (A) (A) (A) (A) (A) (A)
                 (A) (A) (A) (A) (A) (A) (A) (A) (A) (A) (A) (A)
                 (A) (A) (A) (A) (A) (A) (A) (A) (A) (A) (A) (A)
                 (A) (A) (A) (A) (A) (A) (A) (A) (A) (A) (A) (A)
                 (A) (A) (A) (A) (A) (A) (A) (A) (A) (A) (A) (A)
                 (A) (A) (A) (A) (A) (A) (A) (A) (A) (A) (A) (A)
                 (A) (A) (A) (A) (A) (A) (A) (A) (A) (A) (A) (A)
                 (A) (A) (A) (A) (A) (A) (A) (A) (A) (A) (A) (A)
                 (A) (A) (A) (A) (A) (A) (A) (A) (A) (A) (A) (A)
                 (A) (A) (A) (A) (A) (A) (A) (A) (A) (A) (A) (A)
                 (A) (A) (A) (A) (A) (A) (A) (A) (A) (A) (A) (A)
                 (A) (A) (A) (A) (A) (A) (A) (A) (A) (A) (A) (A)
                 (A) (A) (A) (A) (A) (A) (A) (A) (A) (A) (A) (A)
                 (A) (A) (A) (A) (A) (A) (A) (A) (A) (A) (A) (A)
                 (A) (A) (A) (A) (A) (A) (A) (A) (A) (A) (A) (A)
                 (A) (A) (A)
    40 initial guesses have been made.
 Convergence on wavefunction:    0.001000000000000
 Iteration     1 Dimension    40 NMult     0 NNew     40
 CISAX will form    40 AO SS matrices at one time.
 Defaulting to unpruned grid for atomic number  82.
 Defaulting to unpruned grid for atomic number  82.
 Defaulting to unpruned grid for atomic number  82.
 Defaulting to unpruned grid for atomic number  82.
 Defaulting to unpruned grid for atomic number  82.
 New state      6 was old state     10
 New state      7 was old state      6
 New state      8 was old state      9
 New state      9 was old state     13
 New state     10 was old state     19
 Iteration     2 Dimension    60 NMult    40 NNew     20
 New state      5 was old state      6
 New state      6 was old state      5
 New state      7 was old state      8
 New state      8 was old state      7
 New state      9 was old state     10
 New state     10 was old state      9
 Iteration     3 Dimension    80 NMult    60 NNew     20
 New state      2 was old state      4
 New state      4 was old state      2
 New state      6 was old state      9
 New state      8 was old state      6
 New state      9 was old state      8
 Iteration     4 Dimension   100 NMult    80 NNew     20
 New state      2 was old state      4
 New state      3 was old state      2
 New state      4 was old state      3
 New state      9 was old state     10
 New state     10 was old state      9
 Iteration     5 Dimension   120 NMult   100 NNew     20
 Iteration     6 Dimension   140 NMult   120 NNew     20
 Iteration     7 Dimension   160 NMult   140 NNew     20
 Iteration     8 Dimension   172 NMult   160 NNew     12
 Iteration     9 Dimension   178 NMult   172 NNew      6
 Iteration    10 Dimension   180 NMult   178 NNew      2
 ***********************************************************************
 Excited states from <AA,BB:AA,BB> singles matrix:
 ***********************************************************************
 
 Ground to excited state transition densities written to RWF  633
 Ground to excited state transition electric dipole moments (Au):
       state          X           Y           Z        Dip. S.      Osc.
         1        -1.2497     -0.1075      0.0338      1.5745      0.2175
         2        -0.2596      0.5067     -0.1026      0.3346      0.0475
         3         0.0273      0.1879      0.0196      0.0364      0.0052
         4         0.0411      0.0996     -0.0835      0.0186      0.0027
         5        -0.9853     -0.2417      0.1585      1.0543      0.1567
         6        -0.7461      1.6607     -0.1467      3.3363      0.5137
         7        -0.2331     -0.3260     -0.8101      0.8168      0.1276
         8         0.5400      0.3811     -0.2104      0.4811      0.0771
         9        -0.5604     -0.0456      0.8909      1.1097      0.1795
        10         0.9479      0.4151     -0.2589      1.1379      0.1865
 Ground to excited state transition velocity dipole moments (Au):
       state          X           Y           Z        Dip. S.      Osc.
         1         0.2361      0.0151     -0.0203      0.0564      0.1813
         2         0.0510     -0.0923      0.0126      0.0113      0.0353
         3        -0.0086     -0.0346      0.0061      0.0013      0.0041
         4        -0.0083     -0.0176      0.0129      0.0005      0.0017
         5         0.2052      0.0544     -0.0485      0.0474      0.1418
         6         0.1589     -0.3456      0.0305      0.1456      0.4204
         7         0.0818      0.0851      0.1400      0.0335      0.0955
         8        -0.1344     -0.0843      0.0560      0.0283      0.0786
         9         0.1328      0.0059     -0.2150      0.0639      0.1756
        10        -0.2256     -0.1032      0.0429      0.0634      0.1719
 Ground to excited state transition magnetic dipole moments (Au):
       state          X           Y           Z
         1         0.0520      0.2075      0.5542
         2        -0.8982      0.6219     -0.1742
         3         0.3425      0.8627      0.1839
         4        -1.0913     -0.4014      0.5249
         5         0.1154      0.3628      0.5721
         6         0.7136     -1.1924     -0.0564
         7        -0.0070     -0.4581     -1.0848
         8         1.1861     -2.3927      0.7906
         9         0.8342      0.1722      2.0962
        10         0.3309      0.4250      0.3627
 Ground to excited state transition velocity quadrupole moments (Au):
       state          XX          YY          ZZ          XY          XZ          YZ
         1         0.2630     -0.1076      0.0121     -0.2606     -0.1901     -0.0825
         2        -0.2382     -0.0540      0.1211      0.1430     -0.1661     -0.1556
         3         0.1101     -0.1714      0.0643     -0.0301     -0.1207      0.0340
         4        -0.4116      0.1689      0.0367      0.0153      0.1589      0.1703
         5         0.6473     -0.3932      0.0890     -0.0704     -0.2100     -0.1640
         6        -0.3846     -0.9752     -0.0508      0.4118     -0.5228     -0.3770
         7        -1.3543      1.0274      0.1208      0.3068      0.1133      0.3665
         8        -3.1997      0.1369      0.1588     -1.5716      1.5359      0.3022
         9         0.3232     -0.4738      0.1054     -0.5229      0.0997     -0.1747
        10         0.3410     -0.4877     -0.1561     -0.1505      0.2225     -0.4122
 <0|del|b> * <b|rxdel|0> + <0|del|b> * <b|delr+rdel|0>
 Rotatory Strengths (R) in cgs (10**-40 erg-esu-cm/Gauss)
       state          XX          YY          ZZ    R(velocity)    E-M Angle
         1         0.1183    -40.4936     54.6420      4.7556       88.30
         2      -121.4456    -95.9417   -132.8076   -116.7316      153.79
         3       -54.7261     -3.1510    -46.8418    -34.9063      157.63
         4        27.5097     23.3498     24.2311     25.0302       39.61
         5        10.8320    -65.2120    104.1028     16.5743       83.99
         6       370.9216     60.0193   1172.8434    534.5948        9.28
         7      -237.7907   -249.7272    -90.4020   -192.6400      152.59
         8       422.8191    -99.6646    -68.6249     84.8432       79.37
         9      -492.3555   -693.0883    197.5913   -329.2842      126.34
        10       -16.9891     58.0039   -337.2597    -98.7483      129.05
 1/2[<0|r|b>*<b|rxdel|0> + (<0|rxdel|b>*<b|r|0>)*]
 Rotatory Strengths (R) in cgs (10**-40 erg-esu-cm/Gauss)
       state          XX          YY          ZZ     R(length)
         1        45.9525     15.7760    -13.2340     16.1648
         2      -164.8854   -222.8228    -12.6386   -133.4489
         3        -6.6046   -114.6308     -2.5472    -41.2608
         4        31.6857     28.2778     31.0127     30.3254
         5        80.3759     62.0020    -64.1227     26.0851
         6       376.5351   1400.3581     -5.8459    590.3491
         7        -1.1480   -105.6064   -621.4258   -242.7267
         8      -452.9533    644.7694    117.6583    103.1581
         9       330.5606      5.5511  -1320.5711   -328.1531
        10      -221.8285   -124.7553     66.4131    -93.3902
  1/2[<0|del|b>*<b|r|0> + (<0|r|b>*<b|del|0>)*] (Au)
       state          X           Y           Z        Dip. S.   Osc.(frdel)
         1        -0.2950     -0.0016     -0.0007      0.2973      0.1982
         2        -0.0132     -0.0468     -0.0013      0.0613      0.0409
         3        -0.0002     -0.0065      0.0001      0.0066      0.0044
         4        -0.0003     -0.0017     -0.0011      0.0032      0.0021
         5        -0.2022     -0.0131     -0.0077      0.2230      0.1487
         6        -0.1185     -0.5740     -0.0045      0.6970      0.4647
         7        -0.0191     -0.0277     -0.1134      0.1602      0.1068
         8        -0.0726     -0.0321     -0.0118      0.1165      0.0777
         9        -0.0744     -0.0003     -0.1915      0.2662      0.1775
        10        -0.2139     -0.0429     -0.0111      0.2678      0.1785

 Excitation energies and oscillator strengths:
 
 Excited State   1:      Singlet-A      5.6395 eV  219.85 nm  f=0.2175  <S**2>=0.000
      76 ->  93       -0.15487
      77 ->  90       -0.18676
      89 ->  90        0.57221
 This state for optimization and/or second-order correction.
 Total Energy, E(TD-HF/TD-DFT) =  -1027.31526672    
 Copying the excited state density for this state as the 1-particle RhoCI density.
 
 Excited State   2:      Singlet-A      5.7928 eV  214.03 nm  f=0.0475  <S**2>=0.000
      78 ->  91        0.35739
      78 ->  93       -0.17252
      78 ->  97        0.14653
      79 ->  91        0.14980
      79 ->  92        0.16266
      79 ->  93       -0.14689
      80 ->  91       -0.11479
      80 ->  93        0.10026
      81 ->  91        0.12796
      89 ->  91        0.32761
 
 Excited State   3:      Singlet-A      5.8129 eV  213.29 nm  f=0.0052  <S**2>=0.000
      78 ->  92       -0.24616
      78 ->  93        0.15737
      79 ->  90       -0.11527
      79 ->  91       -0.22526
      79 ->  92        0.27788
      79 ->  93       -0.13367
      79 ->  97       -0.10950
      80 ->  91        0.12684
      80 ->  92       -0.16502
      89 ->  92       -0.25549
 
 Excited State   4:      Singlet-A      5.8721 eV  211.14 nm  f=0.0027  <S**2>=0.000
      76 ->  90       -0.32788
      77 ->  92       -0.15930
      77 ->  93       -0.29755
      79 ->  90        0.15174
      80 ->  90        0.18769
      89 ->  92        0.13165
      89 ->  93        0.25596
 
 Excited State   5:      Singlet-A      6.0670 eV  204.36 nm  f=0.1567  <S**2>=0.000
      76 ->  92        0.11147
      76 ->  93        0.22598
      77 ->  90        0.31038
      77 ->  92        0.10206
      78 ->  90        0.12341
      80 ->  93       -0.14216
      84 ->  93        0.10199
      87 ->  90        0.12479
      89 ->  90        0.30151
      89 ->  96       -0.11046
 
 Excited State   6:      Singlet-A      6.2845 eV  197.29 nm  f=0.5137  <S**2>=0.000
      78 ->  91       -0.13605
      81 ->  91       -0.11442
      82 ->  91        0.15294
      86 ->  92        0.12231
      87 ->  92        0.11711
      89 ->  91        0.46221
      89 ->  92       -0.11266
      89 ->  94        0.17184
      89 ->  97       -0.17171
 
 Excited State   7:      Singlet-A      6.3746 eV  194.50 nm  f=0.1276  <S**2>=0.000
      82 ->  92        0.12229
      86 ->  91        0.17822
      86 ->  92       -0.10307
      87 ->  90        0.11344
      87 ->  91        0.10065
      88 ->  90        0.10378
      89 ->  91        0.10935
      89 ->  92        0.41005
      89 ->  95        0.34730
 
 Excited State   8:      Singlet-A      6.5378 eV  189.64 nm  f=0.0771  <S**2>=0.000
      81 ->  93       -0.11679
      82 ->  90        0.15951
      84 ->  90        0.42327
      85 ->  90       -0.14790
      85 ->  93        0.11989
      87 ->  93        0.11750
      88 ->  90       -0.13907
      89 ->  93        0.26216
 
 Excited State   9:      Singlet-A      6.6016 eV  187.81 nm  f=0.1795  <S**2>=0.000
      81 ->  90       -0.10110
      82 ->  93        0.10638
      83 ->  90       -0.16630
      84 ->  92        0.14223
      84 ->  93        0.17093
      85 ->  90        0.23937
      86 ->  91       -0.17041
      87 ->  90        0.15400
      87 ->  92        0.11313
      88 ->  90        0.35748
      89 ->  90       -0.13245
      89 ->  93        0.20220
 
 Excited State  10:      Singlet-A      6.6906 eV  185.31 nm  f=0.1865  <S**2>=0.000
      84 ->  93       -0.10854
      85 ->  90       -0.15232
      86 ->  90        0.18495
      87 ->  90       -0.33083
      87 ->  91       -0.13544
      88 ->  90        0.37688
      88 ->  91        0.10538
      89 ->  95        0.16551
 SavETr:  write IOETrn=   770 NScale= 10 NData=  16 NLR=1 NState=   10 LETran=     190.

 **********************************************************************

            Population analysis using the SCF Density.

 **********************************************************************

 Orbital symmetries:
       Occupied  (A) (A) (A) (A) (A) (A) (A) (A) (A) (A) (A) (A)
                 (A) (A) (A) (A) (A) (A) (A) (A) (A) (A) (A) (A)
                 (A) (A) (A) (A) (A) (A) (A) (A) (A) (A) (A) (A)
                 (A) (A) (A) (A) (A) (A) (A) (A) (A) (A) (A) (A)
                 (A) (A) (A) (A) (A) (A) (A) (A) (A) (A) (A) (A)
                 (A) (A) (A) (A) (A) (A) (A) (A) (A) (A) (A) (A)
                 (A) (A) (A) (A) (A) (A) (A) (A) (A) (A) (A) (A)
                 (A) (A) (A) (A) (A)
       Virtual   (A) (A) (A) (A) (A) (A) (A) (A) (A) (A) (A) (A)
                 (A) (A) (A) (A) (A) (A) (A) (A) (A) (A) (A) (A)
                 (A) (A) (A) (A) (A) (A) (A) (A) (A) (A) (A) (A)
                 (A) (A) (A) (A) (A) (A) (A) (A) (A) (A) (A) (A)
                 (A) (A) (A) (A) (A) (A) (A) (A) (A) (A) (A) (A)
                 (A) (A) (A) (A) (A) (A) (A) (A) (A) (A) (A) (A)
                 (A) (A) (A) (A) (A) (A) (A) (A) (A) (A) (A) (A)
                 (A) (A) (A) (A) (A) (A) (A) (A) (A) (A) (A) (A)
                 (A) (A) (A) (A) (A) (A) (A) (A) (A) (A) (A) (A)
                 (A) (A) (A) (A) (A) (A) (A) (A) (A) (A) (A) (A)
                 (A) (A) (A) (A) (A) (A) (A) (A) (A) (A) (A) (A)
                 (A) (A) (A) (A) (A) (A) (A) (A) (A) (A) (A) (A)
                 (A) (A) (A) (A) (A) (A) (A) (A) (A) (A) (A) (A)
                 (A) (A) (A) (A) (A) (A) (A) (A) (A) (A) (A) (A)
                 (A) (A) (A) (A) (A) (A) (A) (A) (A) (A) (A) (A)
                 (A) (A) (A) (A) (A) (A) (A) (A) (A) (A) (A) (A)
                 (A) (A) (A) (A) (A) (A) (A) (A) (A) (A) (A) (A)
                 (A) (A) (A) (A) (A) (A) (A) (A) (A) (A) (A) (A)
                 (A) (A) (A) (A) (A) (A) (A) (A) (A) (A) (A) (A)
                 (A) (A) (A) (A) (A) (A) (A) (A) (A) (A) (A) (A)
                 (A) (A) (A) (A) (A) (A) (A) (A) (A) (A) (A) (A)
                 (A) (A) (A) (A) (A) (A) (A) (A) (A) (A) (A) (A)
                 (A) (A) (A) (A) (A) (A) (A) (A) (A) (A) (A) (A)
                 (A) (A) (A) (A) (A) (A) (A) (A) (A) (A) (A) (A)
                 (A) (A) (A) (A) (A) (A) (A) (A) (A) (A) (A) (A)
                 (A) (A) (A) (A) (A) (A) (A) (A) (A) (A) (A) (A)
                 (A) (A) (A) (A) (A) (A) (A) (A) (A) (A) (A) (A)
                 (A) (A) (A) (A) (A) (A) (A) (A) (A) (A) (A) (A)
                 (A) (A) (A) (A) (A) (A) (A) (A) (A) (A) (A) (A)
                 (A) (A) (A) (A) (A) (A) (A) (A) (A) (A) (A) (A)
                 (A) (A) (A) (A) (A) (A) (A) (A) (A) (A) (A) (A)
                 (A) (A) (A) (A) (A) (A) (A) (A) (A) (A) (A) (A)
                 (A) (A) (A) (A) (A) (A) (A) (A) (A) (A) (A) (A)
                 (A) (A) (A) (A) (A) (A) (A) (A) (A) (A) (A) (A)
                 (A) (A) (A) (A) (A) (A) (A) (A) (A) (A) (A) (A)
                 (A) (A) (A) (A) (A) (A) (A) (A) (A) (A) (A) (A)
                 (A) (A) (A) (A) (A) (A) (A) (A) (A) (A) (A) (A)
                 (A) (A) (A) (A) (A) (A) (A) (A) (A) (A) (A) (A)
                 (A) (A) (A) (A) (A) (A) (A) (A) (A) (A) (A) (A)
                 (A) (A) (A) (A) (A) (A) (A) (A) (A) (A) (A) (A)
                 (A) (A) (A) (A) (A) (A) (A) (A) (A) (A) (A) (A)
                 (A) (A) (A) (A) (A) (A) (A) (A) (A) (A) (A) (A)
                 (A) (A) (A) (A) (A) (A) (A) (A) (A) (A) (A) (A)
                 (A) (A) (A) (A) (A) (A) (A) (A) (A) (A) (A) (A)
                 (A) (A) (A) (A) (A) (A) (A) (A) (A) (A) (A) (A)
                 (A) (A) (A) (A) (A) (A) (A) (A) (A) (A) (A) (A)
                 (A) (A) (A) (A) (A) (A) (A) (A) (A) (A) (A) (A)
                 (A) (A) (A) (A) (A) (A) (A) (A) (A) (A) (A) (A)
                 (A) (A) (A) (A) (A) (A) (A) (A) (A) (A) (A) (A)
                 (A) (A) (A) (A) (A) (A) (A) (A) (A) (A) (A) (A)
                 (A) (A) (A) (A) (A) (A) (A) (A) (A) (A) (A) (A)
                 (A) (A) (A) (A) (A) (A) (A) (A) (A) (A) (A) (A)
                 (A) (A) (A) (A) (A) (A) (A) (A) (A) (A) (A) (A)
                 (A) (A) (A) (A) (A) (A) (A) (A) (A) (A) (A) (A)
                 (A) (A) (A) (A) (A) (A) (A) (A) (A) (A) (A) (A)
                 (A) (A) (A) (A) (A) (A) (A) (A) (A) (A) (A) (A)
                 (A) (A) (A) (A) (A) (A) (A) (A) (A) (A) (A) (A)
                 (A) (A) (A) (A) (A) (A) (A) (A) (A) (A) (A) (A)
                 (A) (A) (A) (A) (A) (A) (A) (A) (A) (A) (A) (A)
                 (A) (A) (A) (A) (A) (A) (A) (A) (A) (A) (A) (A)
                 (A) (A) (A) (A) (A) (A) (A) (A) (A) (A) (A) (A)
                 (A) (A) (A) (A) (A) (A) (A) (A) (A) (A) (A) (A)
                 (A) (A) (A) (A) (A) (A) (A) (A) (A) (A) (A) (A)
                 (A) (A) (A) (A) (A) (A) (A) (A) (A) (A) (A) (A)
                 (A) (A) (A) (A) (A) (A) (A) (A) (A) (A) (A) (A)
                 (A) (A) (A) (A) (A) (A) (A) (A) (A) (A) (A) (A)
                 (A) (A) (A) (A) (A) (A) (A) (A) (A) (A) (A) (A)
                 (A) (A) (A) (A) (A) (A) (A) (A) (A) (A) (A) (A)
                 (A) (A) (A) (A) (A) (A) (A) (A) (A) (A) (A) (A)
                 (A) (A) (A) (A) (A) (A) (A) (A) (A) (A) (A) (A)
                 (A) (A) (A) (A) (A) (A) (A) (A) (A) (A) (A) (A)
                 (A) (A) (A) (A) (A) (A) (A) (A) (A) (A) (A) (A)
                 (A) (A) (A) (A) (A) (A) (A) (A) (A) (A) (A) (A)
                 (A) (A) (A) (A) (A) (A) (A) (A) (A) (A) (A) (A)
                 (A) (A) (A) (A) (A) (A) (A) (A) (A) (A) (A) (A)
                 (A) (A) (A) (A) (A) (A) (A) (A) (A) (A) (A) (A)
                 (A) (A) (A) (A) (A) (A) (A) (A) (A) (A) (A) (A)
                 (A) (A) (A)
 The electronic state is 1-A.
 Alpha  occ. eigenvalues --  -19.19458 -19.19451 -19.19086 -19.18904 -14.44877
 Alpha  occ. eigenvalues --  -14.44784 -14.44639 -14.44432 -10.36984 -10.36818
 Alpha  occ. eigenvalues --  -10.36755 -10.36601 -10.29277 -10.29195 -10.29123
 Alpha  occ. eigenvalues --  -10.29044 -10.28622 -10.28001 -10.27856 -10.27830
 Alpha  occ. eigenvalues --   -1.13171  -1.13113  -1.13007  -1.12659  -1.03792
 Alpha  occ. eigenvalues --   -1.03698  -1.03660  -1.03458  -0.81727  -0.81373
 Alpha  occ. eigenvalues --   -0.81348  -0.81241  -0.80143  -0.79303  -0.79275
 Alpha  occ. eigenvalues --   -0.79143  -0.79118  -0.78947  -0.65583  -0.65332
 Alpha  occ. eigenvalues --   -0.65195  -0.65004  -0.60344  -0.59818  -0.59627
 Alpha  occ. eigenvalues --   -0.59431  -0.58978  -0.56713  -0.56618  -0.56019
 Alpha  occ. eigenvalues --   -0.55850  -0.55539  -0.55109  -0.54816  -0.51796
 Alpha  occ. eigenvalues --   -0.49831  -0.49694  -0.49479  -0.48601  -0.48194
 Alpha  occ. eigenvalues --   -0.47991  -0.47870  -0.47648  -0.47535  -0.47344
 Alpha  occ. eigenvalues --   -0.47190  -0.46962  -0.46677  -0.46296  -0.45813
 Alpha  occ. eigenvalues --   -0.45623  -0.45168  -0.45086  -0.44701  -0.44337
 Alpha  occ. eigenvalues --   -0.36586  -0.35980  -0.35553  -0.35484  -0.34516
 Alpha  occ. eigenvalues --   -0.33509  -0.33040  -0.32921  -0.32719  -0.32486
 Alpha  occ. eigenvalues --   -0.31985  -0.31852  -0.31636  -0.28632
 Alpha virt. eigenvalues --    0.02256   0.03356   0.03935   0.04264   0.05647
 Alpha virt. eigenvalues --    0.05775   0.06902   0.07385   0.07734   0.07968
 Alpha virt. eigenvalues --    0.09216   0.10298   0.10827   0.11161   0.11415
 Alpha virt. eigenvalues --    0.12031   0.12638   0.12815   0.13665   0.14213
 Alpha virt. eigenvalues --    0.14420   0.14668   0.15312   0.15575   0.15986
 Alpha virt. eigenvalues --    0.16462   0.17049   0.17343   0.17449   0.17666
 Alpha virt. eigenvalues --    0.17941   0.18381   0.18933   0.19436   0.20196
 Alpha virt. eigenvalues --    0.20360   0.21167   0.21493   0.22338   0.22804
 Alpha virt. eigenvalues --    0.23313   0.24001   0.24595   0.24777   0.25386
 Alpha virt. eigenvalues --    0.25708   0.26468   0.26616   0.27274   0.28217
 Alpha virt. eigenvalues --    0.28444   0.28943   0.30283   0.30685   0.31316
 Alpha virt. eigenvalues --    0.31980   0.32776   0.33363   0.33672   0.34199
 Alpha virt. eigenvalues --    0.35239   0.35650   0.35807   0.36157   0.36201
 Alpha virt. eigenvalues --    0.37217   0.37659   0.38178   0.38269   0.38660
 Alpha virt. eigenvalues --    0.39405   0.39630   0.39895   0.40843   0.41746
 Alpha virt. eigenvalues --    0.42274   0.42343   0.43471   0.43511   0.44113
 Alpha virt. eigenvalues --    0.45094   0.45269   0.46432   0.46570   0.46749
 Alpha virt. eigenvalues --    0.47338   0.47665   0.48448   0.48712   0.49091
 Alpha virt. eigenvalues --    0.49458   0.49598   0.50204   0.50449   0.50599
 Alpha virt. eigenvalues --    0.50788   0.51367   0.51615   0.51745   0.51879
 Alpha virt. eigenvalues --    0.51976   0.52163   0.52319   0.52804   0.53282
 Alpha virt. eigenvalues --    0.53477   0.53960   0.54097   0.54563   0.55069
 Alpha virt. eigenvalues --    0.55679   0.55842   0.56277   0.56726   0.56782
 Alpha virt. eigenvalues --    0.57196   0.58136   0.58445   0.58885   0.58994
 Alpha virt. eigenvalues --    0.59359   0.59785   0.60612   0.61002   0.62104
 Alpha virt. eigenvalues --    0.62991   0.63831   0.64493   0.64881   0.65117
 Alpha virt. eigenvalues --    0.66162   0.67262   0.68297   0.68618   0.69185
 Alpha virt. eigenvalues --    0.69757   0.70871   0.71185   0.71611   0.71706
 Alpha virt. eigenvalues --    0.72371   0.73494   0.73551   0.75580   0.75906
 Alpha virt. eigenvalues --    0.76180   0.76684   0.77771   0.78960   0.79434
 Alpha virt. eigenvalues --    0.81010   0.81129   0.81446   0.82087   0.82992
 Alpha virt. eigenvalues --    0.83403   0.83885   0.84226   0.85308   0.85538
 Alpha virt. eigenvalues --    0.86126   0.86556   0.86896   0.87766   0.87840
 Alpha virt. eigenvalues --    0.88567   0.89444   0.89840   0.90039   0.90676
 Alpha virt. eigenvalues --    0.90992   0.91919   0.92076   0.92923   0.93436
 Alpha virt. eigenvalues --    0.93621   0.93970   0.94493   0.95002   0.95643
 Alpha virt. eigenvalues --    0.95952   0.96575   0.97011   0.97212   0.97916
 Alpha virt. eigenvalues --    0.98410   0.98924   0.99169   1.00112   1.00542
 Alpha virt. eigenvalues --    1.01026   1.01134   1.01663   1.02534   1.02810
 Alpha virt. eigenvalues --    1.03297   1.03463   1.03698   1.04152   1.04770
 Alpha virt. eigenvalues --    1.05131   1.05331   1.05722   1.06256   1.06498
 Alpha virt. eigenvalues --    1.06857   1.07239   1.07509   1.08227   1.08642
 Alpha virt. eigenvalues --    1.09661   1.09991   1.10895   1.11444   1.11985
 Alpha virt. eigenvalues --    1.12967   1.13151   1.13521   1.13999   1.14380
 Alpha virt. eigenvalues --    1.14994   1.15497   1.15734   1.16218   1.16509
 Alpha virt. eigenvalues --    1.17206   1.17415   1.18307   1.19235   1.19683
 Alpha virt. eigenvalues --    1.20117   1.21062   1.21465   1.21915   1.22980
 Alpha virt. eigenvalues --    1.23090   1.23455   1.24632   1.24814   1.25005
 Alpha virt. eigenvalues --    1.25499   1.26368   1.27209   1.27442   1.27599
 Alpha virt. eigenvalues --    1.28233   1.28669   1.29064   1.29690   1.30127
 Alpha virt. eigenvalues --    1.30439   1.30846   1.31066   1.31596   1.31914
 Alpha virt. eigenvalues --    1.32555   1.33022   1.33438   1.33921   1.34461
 Alpha virt. eigenvalues --    1.35468   1.35967   1.36112   1.37007   1.37385
 Alpha virt. eigenvalues --    1.37832   1.38265   1.38365   1.38682   1.39126
 Alpha virt. eigenvalues --    1.39622   1.40414   1.40969   1.42251   1.42683
 Alpha virt. eigenvalues --    1.43878   1.44096   1.44436   1.45539   1.45850
 Alpha virt. eigenvalues --    1.46072   1.46843   1.47215   1.47728   1.48152
 Alpha virt. eigenvalues --    1.48360   1.49694   1.50004   1.50428   1.50894
 Alpha virt. eigenvalues --    1.52106   1.53086   1.54584   1.54778   1.55275
 Alpha virt. eigenvalues --    1.56064   1.56319   1.56680   1.57151   1.58257
 Alpha virt. eigenvalues --    1.58874   1.59496   1.60102   1.60660   1.61845
 Alpha virt. eigenvalues --    1.62809   1.63850   1.64558   1.67143   1.68263
 Alpha virt. eigenvalues --    1.69497   1.71588   1.72465   1.73615   1.75064
 Alpha virt. eigenvalues --    1.76252   1.76518   1.77210   1.79188   1.80878
 Alpha virt. eigenvalues --    1.81537   1.81641   1.82969   1.83675   1.85528
 Alpha virt. eigenvalues --    1.85817   1.87124   1.88026   1.88648   1.89514
 Alpha virt. eigenvalues --    1.90342   1.91058   1.96393   1.97015   1.97672
 Alpha virt. eigenvalues --    1.97963   2.00855   2.01693   2.02949   2.05039
 Alpha virt. eigenvalues --    2.10925   2.11222   2.11450   2.13834   2.14564
 Alpha virt. eigenvalues --    2.16020   2.16540   2.17867   2.20295   2.20471
 Alpha virt. eigenvalues --    2.21516   2.23568   2.26413   2.27760   2.28700
 Alpha virt. eigenvalues --    2.29860   2.30335   2.31929   2.33253   2.34418
 Alpha virt. eigenvalues --    2.34848   2.35916   2.37022   2.38116   2.39268
 Alpha virt. eigenvalues --    2.40986   2.42177   2.44065   2.45069   2.45587
 Alpha virt. eigenvalues --    2.47276   2.47935   2.48781   2.48915   2.50183
 Alpha virt. eigenvalues --    2.51118   2.52278   2.54647   2.55505   2.57659
 Alpha virt. eigenvalues --    2.58179   2.59644   2.60805   2.61611   2.62110
 Alpha virt. eigenvalues --    2.63506   2.64765   2.67076   2.68048   2.68313
 Alpha virt. eigenvalues --    2.68574   2.69231   2.69545   2.69995   2.70698
 Alpha virt. eigenvalues --    2.70810   2.71209   2.71352   2.72221   2.72383
 Alpha virt. eigenvalues --    2.72579   2.73314   2.73471   2.74142   2.74701
 Alpha virt. eigenvalues --    2.75265   2.78168   2.78766   2.79025   2.79577
 Alpha virt. eigenvalues --    2.80862   2.81354   2.82332   2.82656   2.83320
 Alpha virt. eigenvalues --    2.83839   2.83923   2.84306   2.84408   2.84932
 Alpha virt. eigenvalues --    2.85206   2.85564   2.85860   2.86254   2.86425
 Alpha virt. eigenvalues --    2.87273   2.87535   2.88189   2.88388   2.89123
 Alpha virt. eigenvalues --    2.90067   2.90388   2.90835   2.91676   2.92209
 Alpha virt. eigenvalues --    2.92506   2.92581   2.93640   2.93910   2.94178
 Alpha virt. eigenvalues --    2.94812   2.95030   2.95253   2.95984   2.96565
 Alpha virt. eigenvalues --    2.96931   2.97409   2.97565   2.97835   2.99153
 Alpha virt. eigenvalues --    2.99515   3.00517   3.00871   3.01541   3.01945
 Alpha virt. eigenvalues --    3.03036   3.04181   3.04352   3.04855   3.05291
 Alpha virt. eigenvalues --    3.06328   3.06737   3.07004   3.07448   3.07673
 Alpha virt. eigenvalues --    3.08060   3.09039   3.09317   3.10476   3.10922
 Alpha virt. eigenvalues --    3.11329   3.11785   3.11987   3.12379   3.12596
 Alpha virt. eigenvalues --    3.12924   3.13533   3.14114   3.14722   3.15077
 Alpha virt. eigenvalues --    3.16154   3.16413   3.17055   3.17267   3.17540
 Alpha virt. eigenvalues --    3.17963   3.18523   3.18897   3.19391   3.19920
 Alpha virt. eigenvalues --    3.21022   3.22007   3.22218   3.23767   3.24321
 Alpha virt. eigenvalues --    3.24852   3.25335   3.26376   3.27415   3.28305
 Alpha virt. eigenvalues --    3.29284   3.30111   3.30688   3.30886   3.31307
 Alpha virt. eigenvalues --    3.31946   3.32526   3.32755   3.33526   3.33560
 Alpha virt. eigenvalues --    3.34100   3.35011   3.35182   3.35832   3.36200
 Alpha virt. eigenvalues --    3.37049   3.37502   3.37640   3.38158   3.38355
 Alpha virt. eigenvalues --    3.38514   3.38895   3.39043   3.39265   3.39429
 Alpha virt. eigenvalues --    3.40033   3.40235   3.40749   3.41441   3.42080
 Alpha virt. eigenvalues --    3.42218   3.42492   3.43306   3.43609   3.44231
 Alpha virt. eigenvalues --    3.44923   3.45490   3.46893   3.47361   3.47699
 Alpha virt. eigenvalues --    3.48066   3.48368   3.48836   3.49452   3.49641
 Alpha virt. eigenvalues --    3.50018   3.50464   3.50840   3.51062   3.51402
 Alpha virt. eigenvalues --    3.52008   3.52240   3.52755   3.53218   3.53920
 Alpha virt. eigenvalues --    3.54810   3.54937   3.55112   3.55831   3.56365
 Alpha virt. eigenvalues --    3.56744   3.57895   3.58122   3.59356   3.59488
 Alpha virt. eigenvalues --    3.60035   3.60163   3.61224   3.63641   3.65075
 Alpha virt. eigenvalues --    3.65876   3.66290   3.66831   3.67312   3.68912
 Alpha virt. eigenvalues --    3.69071   3.70300   3.71128   3.71763   3.72000
 Alpha virt. eigenvalues --    3.74528   3.74837   3.75221   3.76407   3.76953
 Alpha virt. eigenvalues --    3.78230   3.78453   3.79127   3.79446   3.79857
 Alpha virt. eigenvalues --    3.80028   3.80151   3.81007   3.81394   3.81630
 Alpha virt. eigenvalues --    3.81827   3.83135   3.85183   3.86204   3.86685
 Alpha virt. eigenvalues --    3.87133   3.88255   3.89055   3.89362   3.92103
 Alpha virt. eigenvalues --    3.93228   3.93635   3.93842   3.94025   3.95388
 Alpha virt. eigenvalues --    3.95890   3.96225   3.96775   3.97294   3.97671
 Alpha virt. eigenvalues --    3.98513   3.98734   3.99862   3.99947   4.01451
 Alpha virt. eigenvalues --    4.01626   4.02377   4.02929   4.03458   4.04125
 Alpha virt. eigenvalues --    4.04668   4.05023   4.05379   4.05912   4.06546
 Alpha virt. eigenvalues --    4.06954   4.07660   4.07803   4.08301   4.08833
 Alpha virt. eigenvalues --    4.09281   4.10188   4.10945   4.11239   4.11404
 Alpha virt. eigenvalues --    4.11792   4.12047   4.12411   4.12873   4.13786
 Alpha virt. eigenvalues --    4.14092   4.14724   4.15402   4.15844   4.16389
 Alpha virt. eigenvalues --    4.16905   4.17354   4.17610   4.18336   4.18553
 Alpha virt. eigenvalues --    4.19378   4.20862   4.20975   4.21394   4.22683
 Alpha virt. eigenvalues --    4.24239   4.25837   4.26604   4.26758   4.26836
 Alpha virt. eigenvalues --    4.27152   4.27221   4.28340   4.28593   4.28818
 Alpha virt. eigenvalues --    4.29010   4.29254   4.30322   4.30851   4.31380
 Alpha virt. eigenvalues --    4.32398   4.32876   4.33181   4.34041   4.35153
 Alpha virt. eigenvalues --    4.36410   4.36779   4.38890   4.39562   4.41175
 Alpha virt. eigenvalues --    4.42639   4.45253   4.46330   4.49195   4.49571
 Alpha virt. eigenvalues --    4.50369   4.50628   4.51505   4.52105   4.53398
 Alpha virt. eigenvalues --    4.53667   4.54104   4.55068   4.55858   4.58551
 Alpha virt. eigenvalues --    4.60232   4.60811   4.61520   4.61678   4.62579
 Alpha virt. eigenvalues --    4.62976   4.65708   4.67074   4.68105   4.69114
 Alpha virt. eigenvalues --    4.69202   4.69959   4.70967   4.71329   4.71960
 Alpha virt. eigenvalues --    4.72060   4.72475   4.72832   4.73741   4.74882
 Alpha virt. eigenvalues --    4.77041   4.77265   4.77336   4.78162   4.81597
 Alpha virt. eigenvalues --    4.83819   4.84275   4.85475   4.86611   4.87042
 Alpha virt. eigenvalues --    4.87362   4.87969   4.88422   4.89038   4.89916
 Alpha virt. eigenvalues --    4.90740   4.92500   4.94286   4.94945   4.95396
 Alpha virt. eigenvalues --    4.99257   5.00240   5.00763   5.00977   5.01439
 Alpha virt. eigenvalues --    5.01802   5.02617   5.02926   5.03231   5.03657
 Alpha virt. eigenvalues --    5.03982   5.04343   5.04520   5.04998   5.05400
 Alpha virt. eigenvalues --    5.05896   5.06337   5.06440   5.07914   5.09787
 Alpha virt. eigenvalues --    5.14824   5.15763   5.16238   5.16689   5.17559
 Alpha virt. eigenvalues --    5.18816   5.19221   5.19390   5.19652   5.20232
 Alpha virt. eigenvalues --    5.20404   5.20910   5.21271   5.21562   5.21872
 Alpha virt. eigenvalues --    5.22246   5.22490   5.23035   5.23378   5.23753
 Alpha virt. eigenvalues --    5.24052   5.24317   5.25071   5.26704   5.27415
 Alpha virt. eigenvalues --    5.28680   5.29069   5.29570   5.30587   5.31166
 Alpha virt. eigenvalues --    5.31348   5.31773   5.32507   5.32808   5.33217
 Alpha virt. eigenvalues --    5.34126   5.34268   5.37070   5.37112   5.37409
 Alpha virt. eigenvalues --    5.37856   5.38719   5.39014   5.39659   5.40377
 Alpha virt. eigenvalues --    5.40826   5.41279   5.41421   5.41790   5.42028
 Alpha virt. eigenvalues --    5.42283   5.42665   5.43087   5.43797   5.44938
 Alpha virt. eigenvalues --    5.45652   5.46344   5.46425   5.47305   5.47672
 Alpha virt. eigenvalues --    5.48171   5.48528   5.49605   5.51331   5.59286
 Alpha virt. eigenvalues --    5.61775   5.65061   5.65979   5.69445   5.70096
 Alpha virt. eigenvalues --    5.71333   5.72170   5.74560   5.75524   5.76151
 Alpha virt. eigenvalues --    5.76956   5.77307   5.77671   5.78457   5.78782
 Alpha virt. eigenvalues --    5.80135   5.81595   5.82032   5.82152   5.86669
 Alpha virt. eigenvalues --    5.87059   5.89621   5.89674   5.90124   5.90520
 Alpha virt. eigenvalues --    5.91736   5.92909   5.94079   5.94375   5.94751
 Alpha virt. eigenvalues --    5.95667   5.95985   5.97087   5.99126   6.00780
 Alpha virt. eigenvalues --    6.01921   6.03198   6.04059   6.05513   6.05848
 Alpha virt. eigenvalues --    6.06526   6.07923   6.08543   6.11790   6.12106
 Alpha virt. eigenvalues --    6.14817   6.17215   6.17886   6.19831   6.20272
 Alpha virt. eigenvalues --    6.20446   6.31089   6.32605   6.34085   6.37319
 Alpha virt. eigenvalues --    6.43429   6.44448   6.44731   6.46461   6.53902
 Alpha virt. eigenvalues --    6.54377   6.56728   6.59159   6.87756   6.89563
 Alpha virt. eigenvalues --    6.90438   6.92765   6.93443   6.94599   6.98015
 Alpha virt. eigenvalues --    6.98803   7.07305   7.13242   7.15331   7.17179
 Alpha virt. eigenvalues --    7.17438   7.19355   7.21155   7.22604   7.96604
 Alpha virt. eigenvalues --    8.09907   9.68242   9.79564   9.96831  10.21603
 Alpha virt. eigenvalues --   10.56444  11.34890  11.38698  11.47563  11.48810
 Alpha virt. eigenvalues --   12.98019  13.04407  13.13846  13.22051  13.31462
 Alpha virt. eigenvalues --   13.33462  13.34614  13.41680  13.48014  13.71176
 Alpha virt. eigenvalues --   13.78598  13.86716
          Condensed to atoms (all electrons):
 Mulliken charges:
               1
     1  Pb   1.049673
     2  Cl  -0.635929
     3  Cl  -0.627033
     4  O   -0.454687
     5  C    0.155557
     6  H    0.112999
     7  N   -0.021570
     8  C   -0.217128
     9  C   -0.203063
    10  H    0.115132
    11  H    0.111845
    12  H    0.123013
    13  H    0.117293
    14  H    0.125606
    15  H    0.104452
    16  O   -0.454227
    17  C    0.150771
    18  H    0.109107
    19  N   -0.021017
    20  C   -0.228290
    21  C   -0.198073
    22  H    0.114348
    23  H    0.113242
    24  H    0.119311
    25  H    0.112798
    26  H    0.119989
    27  H    0.124616
    28  O   -0.506970
    29  C    0.165430
    30  H    0.109934
    31  N    0.016140
    32  C   -0.199711
    33  C   -0.166535
    34  H    0.108379
    35  H    0.107757
    36  H    0.106019
    37  H    0.112509
    38  H    0.099693
    39  H    0.105381
    40  O   -0.484352
    41  C    0.151052
    42  H    0.114292
    43  N    0.005247
    44  C   -0.236630
    45  C   -0.174468
    46  H    0.108276
    47  H    0.107924
    48  H    0.116146
    49  H    0.129099
    50  H    0.118432
    51  H    0.068220
 Sum of Mulliken charges =  -0.00000
 Mulliken charges with hydrogens summed into heavy atoms:
               1
     1  Pb   1.049673
     2  Cl  -0.635929
     3  Cl  -0.627033
     4  O   -0.454687
     5  C    0.268557
     7  N   -0.021570
     8  C    0.130223
     9  C    0.146928
    16  O   -0.454227
    17  C    0.259878
    19  N   -0.021017
    20  C    0.129113
    21  C    0.148827
    28  O   -0.506970
    29  C    0.275363
    31  N    0.016140
    32  C    0.117873
    33  C    0.155620
    40  O   -0.484352
    41  C    0.265343
    43  N    0.005247
    44  C    0.079121
    45  C    0.157878
 Electronic spatial extent (au):  <R**2>=           9937.7481
 Charge=             -0.0000 electrons
 Dipole moment (field-independent basis, Debye):
    X=            -12.0155    Y=             20.8065    Z=             -2.2226  Tot=             24.1292
 Quadrupole moment (field-independent basis, Debye-Ang):
   XX=            -86.7158   YY=           -148.5309   ZZ=           -176.8622
   XY=             17.9114   XZ=              9.7624   YZ=              5.9797
 Traceless Quadrupole moment (field-independent basis, Debye-Ang):
   XX=             50.6538   YY=            -11.1612   ZZ=            -39.4926
   XY=             17.9114   XZ=              9.7624   YZ=              5.9797
 Octapole moment (field-independent basis, Debye-Ang**2):
  XXX=             49.9588  YYY=            129.0656  ZZZ=             -7.2659  XYY=           -107.2127
  XXY=            -12.2642  XXZ=             -9.0136  XZZ=            -31.0606  YZZ=             38.0798
  YYZ=             -7.3859  XYZ=            -15.1809
 Hexadecapole moment (field-independent basis, Debye-Ang**3):
 XXXX=          -5104.3564 YYYY=          -4599.9681 ZZZZ=          -2191.7460 XXXY=            325.5993
 XXXZ=             97.2837 YYYX=            -96.7251 YYYZ=            138.1320 ZZZX=             63.9031
 ZZZY=             59.8047 XXYY=          -1728.5410 XXZZ=          -1409.1636 YYZZ=          -1177.5668
 XXYZ=            -72.4809 YYXZ=             20.3677 ZZXY=             21.8614
 N-N= 1.996458734890D+03 E-N=-6.378880124736D+03  KE= 9.992239417147D+02
 Unable to Open any file for archive entry.
 1\1\GINC-MPCL051\SP\RCAM-B3LYP TD-FC\Gen\C12H28Cl2N4O4Pb1\EDBA4025\11-
 Nov-2020\0\\# cam-b3lyp/gen pseudo=read TD=NStates=10 Geom=Check Guess
 =Read empiricaldispersion=gd3bj SCRF=(Solvent=n,n-DiMethylFormamide)\\
 PbCl2_DMF\\0,1\Pb,-0.0539080046,-0.8954471386,-0.3303429163\Cl,0.90891
 91332,-2.4067076121,-2.3564283598\Cl,-1.0288647629,-2.9676984529,1.143
 6374959\O,1.0705074297,1.4164667907,-1.4158246196\C,0.9753059977,2.643
 2447864,-1.2094401911\H,1.8718109948,3.2803197939,-1.0058053794\N,-0.1
 755453482,3.3566049741,-1.2107929547\C,-1.4540821355,2.7136370986,-1.4
 698191636\C,-0.179292891,4.7875457446,-0.9536883692\H,0.8548450508,5.1
 343138467,-0.771096164\H,-0.7992990207,5.0220361329,-0.0635941264\H,-0
 .5956975506,5.3384557533,-1.8221200078\H,-2.0958461863,2.7390562916,-0
 .5646744163\H,-1.9822698736,3.235778863,-2.2930473203\H,-1.2666441875,
 1.6649502721,-1.7556572613\O,-0.5598207686,1.1147824087,1.5794102937\C
 ,-0.2337659189,2.2670339193,1.9293336743\H,-0.9949945613,3.0701282842,
 2.0960430305\N,1.0287419845,2.702654222,2.1521968071\C,2.1734233741,1.
 814720946,2.0120828169\C,1.2884645552,4.0673564576,2.5822193625\H,0.33
 42772148,4.6204491376,2.6621044245\H,1.9453922699,4.5859473187,1.85338
 2045\H,1.7919697374,4.0744779332,3.5712534337\H,2.8967245869,2.2382984
 816,1.2850351064\H,2.6895456123,1.7003916322,2.9881648404\H,1.83419625
 3,0.829061125,1.6536530532\O,2.1644986231,-1.2418375874,0.8189649352\C
 ,3.1494288537,-1.9364525035,0.4604116678\H,3.406998317,-2.8886868671,0
 .9830206618\N,3.9983037983,-1.6378528985,-0.5368093537\C,3.8314479297,
 -0.4431687941,-1.3543822388\C,5.0810283044,-2.5425020974,-0.8931799164
 \H,5.1054320584,-3.3911444151,-0.1853380942\H,6.0530393725,-2.01043549
 07,-0.8568034992\H,4.9299498984,-2.9327107295,-1.9204558655\H,4.765822
 2045,0.154105065,-1.3325611403\H,3.611870687,-0.7365298049,-2.40025235
 36\H,2.9870731448,0.1560760651,-0.9724970948\O,-2.276806335,-0.7228270
 024,-1.6872542905\C,-3.3565637269,-0.0863200088,-1.6503291299\H,-3.853
 2305078,0.2635941592,-2.5879505758\N,-4.0370018266,0.2451356939,-0.537
 1571005\C,-3.5517914975,-0.1591535638,0.7807907679\C,-5.2258234571,1.0
 836940589,-0.6062441065\H,-5.4625631889,1.3008612838,-1.6640921332\H,-
 5.0542079647,2.0424871619,-0.0748511656\H,-6.0898306604,0.5704697642,-
 0.1385141913\H,-2.8081733365,0.5636924609,1.1786810786\H,-4.4121908858
 ,-0.2218919408,1.4717987228\H,-3.0649627894,-1.1510110192,0.7108092815
 \\Version=ES64L-G16RevC.01\State=1-A\HF=-1027.5225162\RMSD=7.363e-09\P
 G=C01 [X(C12H28Cl2N4O4Pb1)]\\@
 The archive entry for this job was punched.


 ASKING DUMB QUESTIONS IS EASIER THAN CORECTING DUMB MISTAKES.
 Job cpu time:       0 days 18 hours 19 minutes 47.8 seconds.
 Elapsed time:       0 days  3 hours 40 minutes  0.0 seconds.
 File lengths (MBytes):  RWF=   4823 Int=      0 D2E=      0 Chk=    536 Scr=      1
 Normal termination of Gaussian 16 at Wed Nov 11 22:30:34 2020.
