 Entering Gaussian System, Link 0=g16
 Input=02-PbCl2_dmso_22800278.com
 Output=02-PbCl2_dmso_22800278.log
 Initial command:
 /cm/shared/uniol/software/gaussian/g16.c01/g16/l1.exe "/scratch/22800278_edba4025/Gau-21434.inp" -scrdir="/scratch/22800278_edba4025/"
 Entering Link 1 = /cm/shared/uniol/software/gaussian/g16.c01/g16/l1.exe PID=     21435.
  
 Copyright (c) 1988-2019, Gaussian, Inc.  All Rights Reserved.
  
 This is part of the Gaussian(R) 16 program.  It is based on
 the Gaussian(R) 09 system (copyright 2009, Gaussian, Inc.),
 the Gaussian(R) 03 system (copyright 2003, Gaussian, Inc.),
 the Gaussian(R) 98 system (copyright 1998, Gaussian, Inc.),
 the Gaussian(R) 94 system (copyright 1995, Gaussian, Inc.),
 the Gaussian 92(TM) system (copyright 1992, Gaussian, Inc.),
 the Gaussian 90(TM) system (copyright 1990, Gaussian, Inc.),
 the Gaussian 88(TM) system (copyright 1988, Gaussian, Inc.),
 the Gaussian 86(TM) system (copyright 1986, Carnegie Mellon
 University), and the Gaussian 82(TM) system (copyright 1983,
 Carnegie Mellon University). Gaussian is a federally registered
 trademark of Gaussian, Inc.
  
 This software contains proprietary and confidential information,
 including trade secrets, belonging to Gaussian, Inc.
  
 This software is provided under written license and may be
 used, copied, transmitted, or stored only in accord with that
 written license.
  
 The following legend is applicable only to US Government
 contracts under FAR:
  
                    RESTRICTED RIGHTS LEGEND
  
 Use, reproduction and disclosure by the US Government is
 subject to restrictions as set forth in subparagraphs (a)
 and (c) of the Commercial Computer Software - Restricted
 Rights clause in FAR 52.227-19.
  
 Gaussian, Inc.
 340 Quinnipiac St., Bldg. 40, Wallingford CT 06492
  
  
 ---------------------------------------------------------------
 Warning -- This program may not be used in any manner that
 competes with the business of Gaussian, Inc. or will provide
 assistance to any competitor of Gaussian, Inc.  The licensee
 of this program is prohibited from giving any competitor of
 Gaussian, Inc. access to this program.  By using this program,
 the user acknowledges that Gaussian, Inc. is engaged in the
 business of creating and licensing software in the field of
 computational chemistry and represents and warrants to the
 licensee that it is not a competitor of Gaussian, Inc. and that
 it will not use this program in any manner prohibited above.
 ---------------------------------------------------------------
  

 Cite this work as:
 Gaussian 16, Revision C.01,
 M. J. Frisch, G. W. Trucks, H. B. Schlegel, G. E. Scuseria, 
 M. A. Robb, J. R. Cheeseman, G. Scalmani, V. Barone, 
 G. A. Petersson, H. Nakatsuji, X. Li, M. Caricato, A. V. Marenich, 
 J. Bloino, B. G. Janesko, R. Gomperts, B. Mennucci, H. P. Hratchian, 
 J. V. Ortiz, A. F. Izmaylov, J. L. Sonnenberg, D. Williams-Young, 
 F. Ding, F. Lipparini, F. Egidi, J. Goings, B. Peng, A. Petrone, 
 T. Henderson, D. Ranasinghe, V. G. Zakrzewski, J. Gao, N. Rega, 
 G. Zheng, W. Liang, M. Hada, M. Ehara, K. Toyota, R. Fukuda, 
 J. Hasegawa, M. Ishida, T. Nakajima, Y. Honda, O. Kitao, H. Nakai, 
 T. Vreven, K. Throssell, J. A. Montgomery, Jr., J. E. Peralta, 
 F. Ogliaro, M. J. Bearpark, J. J. Heyd, E. N. Brothers, K. N. Kudin, 
 V. N. Staroverov, T. A. Keith, R. Kobayashi, J. Normand, 
 K. Raghavachari, A. P. Rendell, J. C. Burant, S. S. Iyengar, 
 J. Tomasi, M. Cossi, J. M. Millam, M. Klene, C. Adamo, R. Cammi, 
 J. W. Ochterski, R. L. Martin, K. Morokuma, O. Farkas, 
 J. B. Foresman, and D. J. Fox, Gaussian, Inc., Wallingford CT, 2019.
 
 ******************************************
 Gaussian 16:  ES64L-G16RevC.01  3-Jul-2019
                11-Nov-2020 
 ******************************************
 %oldChk=01-PbCl2_dmso
 %chk=02-PbCl2_dmso
 %mem=16GB
 %NProcShared=5
 Will use up to    5 processors via shared memory.
 Copying data from "01-PbCl2_dmso.chk" to current chk file "02-PbCl2_dmso.chk"
 IOpt=  2 FromEx=T IUOpen= 4 IOptOp= 5 NList=   0 IFRang= 0 IUIn= 4 IUOut= 2.
 ----------------------------------------------------------------------
 # cam-b3lyp/gen pseudo=read TD=NStates=10 Geom=Check Guess=Read empiri
 caldispersion=gd3bj SCRF=(Solvent=DMSO)
 ----------------------------------------------------------------------
 1/29=2,38=1,172=1/1;
 2/12=2,40=1/2;
 3/5=7,11=9,14=-4,16=1,17=8,25=1,30=1,70=2201,72=21,74=-40,116=-2,124=41/1,2,3,8;
 4/5=1/1;
 5/5=2,38=6,53=21/2;
 8/6=1,10=1,108=10/1;
 9/41=10,42=1,70=2/14;
 6/7=2,8=2,9=2,10=2/1;
 99/5=1,9=1/99;
 ----------
 PbCl2_dmso
 ----------
 Structure from the checkpoint file:  "02-PbCl2_dmso.chk"
 Charge =  0 Multiplicity = 1
 No Z-Matrix found in chk file; cartesian coordinates used.
  Pb                                                0.121241334014     -0.329478360110     -0.289918476792
  Cl                                                1.255291920422      2.163241732322     -1.559785359282
  Cl                                                0.268809599638     -2.167021331078     -2.446829005317
  O                                                -0.620472747620      1.163202737455      1.640611941521
  S                                                 0.256037544906      2.153374504802      2.502279469850
  C                                                 0.154127237445      3.777352864284      1.664862863069
  C                                                 1.997975886167      1.794187019042      2.075871334737
  H                                                -0.895266264090      4.113984044001      1.747884608660
  H                                                 2.167719387480      0.726456422089      2.308029384336
  H                                                 0.823226206772      4.477592496388      2.201357655923
  H                                                 2.646562857817      2.448866210113      2.688894003719
  H                                                 0.461078058407      3.638356099502      0.608905732612
  H                                                 2.126692124656      1.975670340317      0.989557434514
  O                                                -1.088826330926     -1.847320605133      1.112164810140
  S                                                -2.476822417623     -1.347885441079      1.706027103945
  C                                                -3.709497398775     -2.350410001926      0.814789563254
  C                                                -2.531307023619     -2.199353835012      3.315112728648
  H                                                -3.688414180943     -1.956325494053     -0.217330157668
  H                                                -1.755535725394     -1.723203638333      3.941866586360
  H                                                -4.702969838823     -2.196547738531      1.278013398864
  H                                                -3.531648299643     -2.052791479622      3.765178050224
  H                                                -3.397796635555     -3.410933089069      0.853584415642
  H                                                -2.307730758549     -3.270755789094      3.155975738191
  O                                                 2.255903603083     -1.240734464225      0.867219356886
  S                                                 3.657668034911     -1.521238025705      0.197636381157
  C                                                 4.793896697802     -0.248868355808      0.863034533115
  C                                                 3.557885537894     -0.876319428499     -1.510263193444
  H                                                 4.860180696695     -0.421618255080      1.952646838893
  H                                                 2.816535288096     -1.509016142338     -2.038960673925
  H                                                 5.784643446002     -0.394210933633      0.391369398539
  H                                                 4.561870990089     -0.965645057007     -1.967648980816
  H                                                 4.387948865827      0.755764835454      0.642006009576
  H                                                 3.206186364697      0.175897132553     -1.478788451704
  O                                                -2.227671467227     -0.070993876418     -0.929035479819
  S                                                -2.915296060099      1.134000853212     -1.696513658786
  C                                                -1.968178645827      1.307060137157     -3.247513272414
  C                                                -2.331681837991      2.646486382860     -0.860929961399
  H                                                -2.102499088680      0.356959379270     -3.795782564486
  H                                                -2.645335367207      2.548794797059      0.193677591214
  H                                                -2.397543901654      2.151687397236     -3.819655657845
  H                                                -2.820401472851      3.513668095228     -1.344836639724
  H                                                -0.903162514796      1.483303518659     -2.991308959044
  H                                                -1.227103704927      2.688694342750     -0.945436441121
 Recover connectivity data from disk.
                          Input orientation:                          
 ---------------------------------------------------------------------
 Center     Atomic      Atomic             Coordinates (Angstroms)
 Number     Number       Type             X           Y           Z
 ---------------------------------------------------------------------
      1         82           0        0.121241   -0.329478   -0.289918
      2         17           0        1.255292    2.163242   -1.559785
      3         17           0        0.268810   -2.167021   -2.446829
      4          8           0       -0.620473    1.163203    1.640612
      5         16           0        0.256038    2.153375    2.502279
      6          6           0        0.154127    3.777353    1.664863
      7          6           0        1.997976    1.794187    2.075871
      8          1           0       -0.895266    4.113984    1.747885
      9          1           0        2.167719    0.726456    2.308029
     10          1           0        0.823226    4.477592    2.201358
     11          1           0        2.646563    2.448866    2.688894
     12          1           0        0.461078    3.638356    0.608906
     13          1           0        2.126692    1.975670    0.989557
     14          8           0       -1.088826   -1.847321    1.112165
     15         16           0       -2.476822   -1.347885    1.706027
     16          6           0       -3.709497   -2.350410    0.814790
     17          6           0       -2.531307   -2.199354    3.315113
     18          1           0       -3.688414   -1.956325   -0.217330
     19          1           0       -1.755536   -1.723204    3.941867
     20          1           0       -4.702970   -2.196548    1.278013
     21          1           0       -3.531648   -2.052791    3.765178
     22          1           0       -3.397797   -3.410933    0.853584
     23          1           0       -2.307731   -3.270756    3.155976
     24          8           0        2.255904   -1.240734    0.867219
     25         16           0        3.657668   -1.521238    0.197636
     26          6           0        4.793897   -0.248868    0.863035
     27          6           0        3.557886   -0.876319   -1.510263
     28          1           0        4.860181   -0.421618    1.952647
     29          1           0        2.816535   -1.509016   -2.038961
     30          1           0        5.784643   -0.394211    0.391369
     31          1           0        4.561871   -0.965645   -1.967649
     32          1           0        4.387949    0.755765    0.642006
     33          1           0        3.206186    0.175897   -1.478788
     34          8           0       -2.227671   -0.070994   -0.929035
     35         16           0       -2.915296    1.134001   -1.696514
     36          6           0       -1.968179    1.307060   -3.247513
     37          6           0       -2.331682    2.646486   -0.860930
     38          1           0       -2.102499    0.356959   -3.795783
     39          1           0       -2.645335    2.548795    0.193678
     40          1           0       -2.397544    2.151687   -3.819656
     41          1           0       -2.820401    3.513668   -1.344837
     42          1           0       -0.903163    1.483304   -2.991309
     43          1           0       -1.227104    2.688694   -0.945436
 ---------------------------------------------------------------------
                    Distance matrix (angstroms):
                    1          2          3          4          5
     1  Pb   0.000000
     2  Cl   3.018656   0.000000
     3  Cl   2.837359   4.528926   0.000000
     4  O    2.550526   3.842020   5.346811   0.000000
     5  S    3.738863   4.183178   6.569601   1.578348   0.000000
     6  C    4.548441   3.770448   7.228744   2.726605   1.830016
     7  C    3.691754   3.729046   6.255878   2.728345   1.828986
     8  H    4.993024   4.401247   7.642102   2.965490   2.395538
     9  H    3.471657   4.225739   5.881050   2.900036   2.393398
    10  H    5.459594   4.437240   8.127971   3.658399   2.411275
    11  H    4.792679   4.479787   7.303135   3.664062   2.415937
    12  H    4.082534   2.740430   6.563299   2.891462   2.414969
    13  H    3.312492   2.700680   5.694065   2.937838   2.412313
    14  O    2.394566   5.358994   3.822541   3.092226   4.443719
    15  S    3.430873   6.076366   5.045363   3.123440   4.512357
    16  C    4.469799   7.117639   5.147690   4.750740   6.233552
    17  C    4.850639   7.558783   6.406377   4.214502   5.232230
    18  H    4.143112   6.573679   4.546942   4.753490   6.312259
    19  H    4.834539   7.378192   6.716426   3.862057   4.598554
    20  H    5.405310   7.909599   6.212400   5.299640   6.709128
    21  H    5.723392   8.309330   7.283238   4.830253   5.799423
    22  H    4.815246   7.651602   5.087637   5.408850   6.857858
    23  H    5.140545   8.028815   6.264839   4.980277   6.035016
    24  O    2.593480   4.298678   3.973596   3.827609   4.265309
    25  S    3.763551   4.736595   4.346791   5.252703   5.512281
    26  C    4.813471   4.920371   5.925447   5.649245   5.389811
    27  C    3.687655   3.813571   3.655282   5.616613   6.015126
    28  H    5.243580   5.658083   6.594127   5.713719   5.303849
    29  H    3.422728   4.019026   2.662749   5.700266   6.371194
    30  H    5.704601   5.555411   6.451562   6.709073   6.442951
    31  H    4.789434   4.570531   4.483670   6.663950   6.946132
    32  H    4.500114   4.079512   5.920379   5.123232   4.742006
    33  H    3.344503   2.786052   3.880020   5.034754   5.335044
    34  O    2.447994   4.185772   3.595754   3.272525   4.784407
    35  S    3.652512   4.297887   4.647392   4.050120   5.359696
    36  C    3.973827   3.737945   4.208854   5.072551   6.222821
    37  C    3.898622   3.686232   5.696270   3.374326   4.272075
    38  H    4.208004   4.420079   3.716619   5.692171   6.960990
    39  H    4.021476   4.293970   6.140313   2.848430   3.728802
    40  H    4.995949   4.295388   5.257884   5.826629   6.856264
    41  H    4.953372   4.298969   6.559561   4.390590   5.110301
    42  H    3.410732   2.677779   3.872318   4.651566   5.654401
    43  H    3.370030   2.610711   5.298104   3.063131   3.791177
                    6          7          8          9         10
     6  C    0.000000
     7  C    2.738914   0.000000
     8  H    1.105188   3.722886   0.000000
     9  H    3.711628   1.105784   4.601194   0.000000
    10  H    1.107184   2.931970   1.814129   3.986234   0.000000
    11  H    3.004289   1.106827   4.025254   1.827852   2.770917
    12  H    1.108415   2.813361   1.833893   3.778731   1.836130
    13  H    2.755560   1.108865   3.778846   1.816752   3.070358
    14  O    5.786826   4.870078   5.998230   4.319666   6.696776
    15  S    5.761220   5.480258   5.686395   5.122213   6.713558
    16  C    7.293812   7.165421   7.111888   6.799893   8.312026
    17  C    6.756915   6.164292   6.707538   5.626316   7.554797
    18  H    7.154219   7.187500   6.965085   6.918747   8.221937
    19  H    6.252014   5.472004   6.294949   4.905323   6.937525
    20  H    7.708990   7.839975   7.385269   7.537324   8.714101
    21  H    7.210191   6.944764   7.003507   6.506173   8.003523
    22  H    8.058895   7.596158   7.980402   7.085787   9.047782
    23  H    7.613146   6.734937   7.649324   6.060229   8.411367
    24  O    5.498627   3.276906   6.275225   2.439990   6.044150
    25  S    6.519403   4.156247   7.408658   3.424301   6.930723
    26  C    6.195228   3.669090   7.223850   3.152154   6.316389
    27  C    6.582071   4.735534   7.439705   4.368159   7.065328
    28  H    6.313566   3.621767   7.330674   2.948512   6.353041
    29  H    6.982294   5.339760   7.728894   4.930986   7.602175
    30  H    7.122250   4.686735   8.172218   4.244010   7.185137
    31  H    7.424242   5.526327   8.329956   5.184264   7.809412
    32  H    5.301083   2.974267   6.357119   2.775952   5.384313
    33  H    5.671692   4.088305   6.537726   3.965037   6.142195
    34  O    5.216421   5.510396   5.143466   5.516700   6.308484
    35  S    5.263793   6.229525   4.982439   6.483788   6.352130
    36  C    5.893892   6.656283   5.829577   6.950310   6.894520
    37  C    3.719911   5.300675   3.320053   5.828673   4.762772
    38  H    6.827159   7.304508   6.804770   7.458406   7.842524
    39  H    3.392747   5.066796   2.815692   5.563892   4.447691
    40  H    6.263686   7.362448   6.091383   7.773123   7.213584
    41  H    4.239769   6.154236   3.692079   6.781838   5.175004
    42  H    5.297212   5.847185   5.420378   6.171395   6.237786
    43  H    3.147481   4.508834   3.065215   5.095119   4.160087
                   11         12         13         14         15
    11  H    0.000000
    12  H    3.243082   0.000000
    13  H    1.839001   2.384049   0.000000
    14  O    5.907320   5.722598   4.996984   0.000000
    15  S    6.452165   5.890462   5.722910   1.590170   0.000000
    16  C    8.181982   7.300781   7.266817   2.685041   1.821770
    17  C    6.986303   7.096251   6.673529   2.656625   1.821297
    18  H    8.245228   7.014372   7.122684   2.921865   2.353180
    19  H    6.193107   6.690914   6.121233   2.909831   2.379096
    20  H    8.808296   7.820563   8.008426   3.634763   2.420569
    21  H    7.719689   7.634990   7.479933   3.612212   2.418606
    22  H    8.616257   8.040103   7.717121   2.800552   2.414750
    23  H    7.581376   7.867000   7.202948   2.772915   2.414202
    24  O    4.133312   5.205156   3.221323   3.408103   4.807679
    25  S    4.794833   6.083481   3.898640   4.844781   6.319594
    26  C    3.901612   5.826527   3.475422   6.101110   7.401475
    27  C    5.433258   5.870553   4.053549   5.423274   6.854531
    28  H    3.698898   6.135237   3.761182   6.174927   7.399352
    29  H    6.168171   6.249385   4.668067   5.029502   6.486180
    30  H    4.817599   6.682011   4.399406   7.062270   8.419598
    31  H    6.083641   6.682212   4.829752   6.495613   7.948912
    32  H    3.176282   4.871421   2.592729   6.082119   7.258276
    33  H    4.780078   4.886994   3.239942   5.408658   6.690407
    34  O    6.572463   4.832589   5.179799   2.935780   2.938721
    35  S    7.203815   4.794440   5.774516   4.484746   4.234301
    36  C    7.605294   5.119394   5.930242   5.452538   5.643139
    37  C    6.117452   3.308131   4.873540   5.062815   4.750299
    38  H    8.305462   6.061417   6.588305   5.474882   5.772047
    39  H    5.851519   3.318036   4.871770   4.753122   4.183266
    40  H    8.239693   5.476683   6.605166   6.482874   6.541136
    41  H    6.876953   3.821095   5.682303   6.146170   5.749828
    42  H    6.767390   4.412137   5.026902   5.288291   5.705874
    43  H    5.317064   2.483505   3.937074   4.982798   4.988590
                   16         17         18         19         20
    16  C    0.000000
    17  C    2.768134   0.000000
    18  H    1.104997   3.725065   0.000000
    19  H    3.740316   1.105152   4.592307   0.000000
    20  H    1.106904   2.977566   1.822932   4.000942   0.000000
    21  H    2.970690   1.106672   3.986760   1.815055   2.752934
    22  H    1.106061   2.877125   1.829535   3.883676   1.832580
    23  H    2.879781   1.105990   3.874688   1.821390   3.227667
    24  O    6.067960   5.461549   6.084672   5.077192   7.036210
    25  S    7.439323   6.962895   7.370646   6.585046   8.457158
    26  C    8.759367   7.967163   8.719644   7.385657   9.703408
    27  C    7.771336   7.881176   7.439553   7.659985   8.818119
    28  H    8.857445   7.723390   8.952240   7.029852   9.749839
    29  H    7.172234   7.598821   6.769992   7.531268   8.247301
    30  H    9.702820   8.997880   9.620267   8.439583  10.678230
    31  H    8.836010   8.929881   8.491894   8.683657   9.893772
    32  H    8.674492   7.984631   8.562799   7.401133   9.579429
    33  H    7.711641   7.844880   7.326197   7.590044   8.705355
    34  O    3.229934   4.757615   2.488929   5.165113   3.939054
    35  S    4.367896   6.031177   3.512238   6.426507   4.810004
    36  C    5.736862   7.461911   4.773982   7.804800   6.343086
    37  C    5.447512   6.400105   4.841572   6.518665   5.801126
    38  H    5.582980   7.568583   4.546618   8.019893   6.247100
    39  H    5.051775   5.683421   4.642526   5.752446   5.284687
    40  H    6.593041   8.357893   5.614166   8.698746   7.085786
    41  H    6.312043   7.378165   5.652039   7.517180   6.559723
    42  H    6.087632   7.482231   5.223374   7.686166   6.797570
    43  H    5.886701   6.614094   5.307014   6.605287   6.394604
                   21         22         23         24         25
    21  H    0.000000
    22  H    3.215563   0.000000
    23  H    1.830994   2.551254   0.000000
    24  O    6.523294   6.055929   5.494192   0.000000
    25  S    8.043393   7.333539   6.884662   1.578597   0.000000
    26  C    8.999515   8.780808   8.051242   2.724927   1.831037
    27  C    8.914923   7.771329   7.868454   2.735028   1.828332
    28  H    8.738924   8.850883   7.806698   2.937918   2.394841
    29  H    8.618767   7.113510   7.506610   2.971896   2.389565
    30  H   10.046231   9.676335   9.022421   3.659924   2.414901
    31  H    9.977587   8.791763   8.874486   3.664647   2.411375
    32  H    8.964497   8.833118   8.207621   2.929564   2.432183
    33  H    8.824095   7.868793   7.985220   2.900627   2.427860
    34  O    5.259612   3.962590   5.189624   4.969635   6.165210
    35  S    6.353394   5.233759   6.581616   6.241266   7.337708
    36  C    7.931638   6.412665   7.878856   6.423796   7.177637
    37  C    6.702537   6.385021   7.151913   6.256431   7.373113
    38  H    8.063342   6.123024   7.844067   6.579657   7.256345
    39  H    5.892008   6.043181   6.538834   6.231880   7.502868
    40  H    8.746058   7.333650   8.835745   7.424951   8.142150
    41  H    7.589703   7.288110   8.157730   7.298384   8.348346
    42  H    8.066165   6.705219   7.897025   5.682281   6.324383
    43  H    7.069830   6.719661   7.314669   5.554950   6.549133
                   26         27         28         29         30
    26  C    0.000000
    27  C    2.748447   0.000000
    28  H    1.105211   3.727529   0.000000
    29  H    3.730886   1.108795   4.614309   0.000000
    30  H    1.106875   2.967673   1.814654   3.994867   0.000000
    31  H    2.929228   1.106873   3.969090   1.829353   2.717844
    32  H    1.105864   2.825768   1.824010   3.845277   1.826477
    33  H    2.861011   1.109884   3.855836   1.817843   3.235885
    34  O    7.248833   5.870183   7.659287   5.361330   8.126815
    35  S    8.239858   6.780719   8.728938   6.321131   9.076543
    36  C    8.064935   6.190523   8.755369   5.681934   8.731669
    37  C    7.882195   6.893388   8.309775   6.720126   8.757216
    38  H    8.344572   6.227723   9.062535   5.546637   8.961223
    39  H    7.976035   7.287988   8.261362   7.161182   8.931120
    40  H    8.911065   7.068894   9.623718   6.615002   9.547907
    41  H    8.775472   7.744798   9.238572   7.581835   9.608992
    42  H    7.093156   5.259493   7.828637   4.867966   7.726210
    43  H    6.939185   5.993703   7.424821   5.930226   7.775343
                   31         32         33         34         35
    31  H    0.000000
    32  H    3.131102   0.000000
    33  H    1.838473   2.496113   0.000000
    34  O    6.926544   6.849681   5.467174   0.000000
    35  S    7.771104   7.677833   6.199832   1.585517   0.000000
    36  C    7.031699   7.472124   5.584082   2.709559   1.825536
    37  C    7.860877   7.140524   6.095371   2.720323   1.823847
    38  H    7.035992   7.872670   5.795117   2.901215   2.381462
    39  H    8.304604   7.272073   6.532082   2.880663   2.376414
    40  H    7.847366   8.240020   6.386329   3.650322   2.410702
    41  H    8.657372   7.969560   6.890459   3.657051   2.407384
    42  H    6.075510   6.459578   4.569877   2.902264   2.418096
    43  H    6.921802   6.146951   5.123736   2.935521   2.414784
                   36         37         38         39         40
    36  C    0.000000
    37  C    2.760793   0.000000
    38  H    1.105139   3.729319   0.000000
    39  H    3.720516   1.104590   4.584169   0.000000
    40  H    1.106841   3.000537   1.818975   4.040537   0.000000
    41  H    3.035718   1.106805   4.060459   1.824460   2.856314
    42  H    1.109487   2.816412   1.831458   3.783461   1.834686
    43  H    2.785258   1.108610   3.785205   1.824427   3.149515
                   41         42         43
    41  H    0.000000
    42  H    3.241768   0.000000
    43  H    1.838124   2.396560   0.000000
 Stoichiometry    C8H24Cl2O4PbS4
 Framework group  C1[X(C8H24Cl2O4PbS4)]
 Deg. of freedom   123
 Full point group                 C1      NOp   1
 Largest Abelian subgroup         C1      NOp   1
 Largest concise Abelian subgroup C1      NOp   1
                         Standard orientation:                         
 ---------------------------------------------------------------------
 Center     Atomic      Atomic             Coordinates (Angstroms)
 Number     Number       Type             X           Y           Z
 ---------------------------------------------------------------------
      1         82           0        0.121724   -0.331708   -0.286055
      2         17           0        1.253464    2.150152   -1.579044
      3         17           0        0.272076   -2.189393   -2.425449
      4          8           0       -0.622313    1.178332    1.630027
      5         16           0        0.252801    2.177575    2.482593
      6          6           0        0.149390    3.793451    1.629828
      7          6           0        1.995284    1.816303    2.060190
      8          1           0       -0.900404    4.129689    1.709308
      9          1           0        2.166126    0.751003    2.302488
     10          1           0        0.817527    4.499472    2.159906
     11          1           0        2.642933    2.477466    2.667217
     12          1           0        0.456863    3.644819    0.575336
     13          1           0        2.124180    1.987652    0.972253
     14          8           0       -1.087156   -1.837569    1.129903
     15         16           0       -2.475911   -1.334081    1.718547
     16          6           0       -3.707166   -2.346350    0.836408
     17          6           0       -2.530017   -2.170361    3.335591
     18          1           0       -3.686157   -1.962016   -0.199383
     19          1           0       -1.754991   -1.687449    3.958079
     20          1           0       -4.700970   -2.189217    1.297820
     21          1           0       -3.530677   -2.020660    3.783912
     22          1           0       -3.394307   -3.406113    0.885332
     23          1           0       -2.305202   -3.242971    3.186665
     24          8           0        2.256987   -1.229620    0.880368
     25         16           0        3.659294   -1.514887    0.213942
     26          6           0        4.793884   -0.235026    0.867668
     27          6           0        3.559396   -0.886252   -1.500011
     28          1           0        4.859978   -0.397395    1.958887
     29          1           0        2.818930   -1.524739   -2.022955
     30          1           0        5.784955   -0.383723    0.397734
     31          1           0        4.563640   -0.978785   -1.956192
     32          1           0        4.386904    0.767022    0.637015
     33          1           0        3.206524    0.165825   -1.478604
     34          8           0       -2.227250   -0.081879   -0.928383
     35         16           0       -2.915937    1.115044   -1.707451
     36          6           0       -1.968469    1.274484   -3.259696
     37          6           0       -2.334286    2.636007   -0.886004
     38          1           0       -2.101548    0.319095   -3.799005
     39          1           0       -2.648200    2.547941    0.169373
     40          1           0       -2.398567    2.113189   -3.839943
     41          1           0       -2.823794    3.498033   -1.378252
     42          1           0       -0.903738    1.454322   -3.004808
     43          1           0       -1.229725    2.678638   -0.970532
 ---------------------------------------------------------------------
 Rotational constants (GHZ):           0.1900482           0.1444040           0.1415654
 General basis read from cards:  (5D, 7F)
 ======================================================================================================
                                       Pseudopotential Parameters
 ======================================================================================================
  Center     Atomic      Valence      Angular      Power
  Number     Number     Electrons     Momentum     of R      Exponent        Coefficient   SO-Coeffient
 ======================================================================================================
    1         82            4
                                      G and up 
                                                     0      376.5803786       -0.17896050    0.00000000
                                                     1       86.4840014      -54.39723370    0.00000000
                                                     2       26.6784276     -199.70617590    0.00000000
                                                     2        9.4261986      -79.12239410    0.00000000
                                                     2        2.7101719      -24.98690200    0.00000000
                                                     2        0.8792031       -4.43979390    0.00000000
                                      S - G
                                                     0      132.4248796        2.81153860    0.00000000
                                                     1       47.2376044       65.03672050    0.00000000
                                                     2       17.6312727      212.78685450    0.00000000
                                                     2        5.4744712       72.10531750    0.00000000
                                                     2        1.2634856       33.01409400    0.00000000
                                                     2        0.7651447       -5.77084610    0.00000000
                                      P - G
                                                     0       67.8966454        4.87549110    0.00000000
                                                     1       24.9898225       63.91481020    0.00000000
                                                     2       10.7052939      148.10643580    0.00000000
                                                     2        3.2792568       47.31063010    0.00000000
                                                     2        0.8452522       21.03067020    0.00000000
                                                     2        0.6416245       -7.09307720    0.00000000
                                      D - G
                                                     0       68.8336005        3.21613880    0.00000000
                                                     1       24.2815874       55.73860860    0.00000000
                                                     2        9.4532762      121.41683510    0.00000000
                                                     2        2.4788185       19.34560640    0.00000000
                                                     2        2.4789161       15.36751680    0.00000000
                                                     2        0.5551738        6.12987240    0.00000000
                                      F - G
                                                     0      128.1021322        4.13536820    0.00000000
                                                     1       54.8029154       67.51284460    0.00000000
                                                     2       24.5529308      258.73731070    0.00000000
                                                     2        8.1144792      113.24782640    0.00000000
                                                     2        1.6931290       34.16802010    0.00000000
                                                     2        0.7670500       -6.55319560    0.00000000
    2         17            7
                                      D and up 
                                                     1       94.8130000      -10.00000000    0.00000000
                                                     2      165.6440000       66.27291700    0.00000000
                                                     2       30.8317000      -28.96859500    0.00000000
                                                     2       10.5841000      -12.86633700    0.00000000
                                                     2        3.7704000       -1.71021700    0.00000000
                                      S - D
                                                     0      128.8391000        3.00000000    0.00000000
                                                     1      120.3786000       12.85285100    0.00000000
                                                     2       63.5622000      275.67239800    0.00000000
                                                     2       18.0695000      115.67771200    0.00000000
                                                     2        3.8142000       35.06060900    0.00000000
                                      P - D
                                                     0      216.5263000        5.00000000    0.00000000
                                                     1       46.5723000        7.47948600    0.00000000
                                                     2      147.4685000      613.03200000    0.00000000
                                                     2       48.9869000      280.80068500    0.00000000
                                                     2       13.2096000      107.87882400    0.00000000
                                                     2        3.1831000       15.34395600    0.00000000
    3         17            7
                                      D and up 
                                                     1       94.8130000      -10.00000000    0.00000000
                                                     2      165.6440000       66.27291700    0.00000000
                                                     2       30.8317000      -28.96859500    0.00000000
                                                     2       10.5841000      -12.86633700    0.00000000
                                                     2        3.7704000       -1.71021700    0.00000000
                                      S - D
                                                     0      128.8391000        3.00000000    0.00000000
                                                     1      120.3786000       12.85285100    0.00000000
                                                     2       63.5622000      275.67239800    0.00000000
                                                     2       18.0695000      115.67771200    0.00000000
                                                     2        3.8142000       35.06060900    0.00000000
                                      P - D
                                                     0      216.5263000        5.00000000    0.00000000
                                                     1       46.5723000        7.47948600    0.00000000
                                                     2      147.4685000      613.03200000    0.00000000
                                                     2       48.9869000      280.80068500    0.00000000
                                                     2       13.2096000      107.87882400    0.00000000
                                                     2        3.1831000       15.34395600    0.00000000
    4          8
                                   No pseudopotential on this center.
    5         16
                                   No pseudopotential on this center.
    6          6
                                   No pseudopotential on this center.
    7          6
                                   No pseudopotential on this center.
    8          1
                                   No pseudopotential on this center.
    9          1
                                   No pseudopotential on this center.
   10          1
                                   No pseudopotential on this center.
   11          1
                                   No pseudopotential on this center.
   12          1
                                   No pseudopotential on this center.
   13          1
                                   No pseudopotential on this center.
   14          8
                                   No pseudopotential on this center.
   15         16
                                   No pseudopotential on this center.
   16          6
                                   No pseudopotential on this center.
   17          6
                                   No pseudopotential on this center.
   18          1
                                   No pseudopotential on this center.
   19          1
                                   No pseudopotential on this center.
   20          1
                                   No pseudopotential on this center.
   21          1
                                   No pseudopotential on this center.
   22          1
                                   No pseudopotential on this center.
   23          1
                                   No pseudopotential on this center.
   24          8
                                   No pseudopotential on this center.
   25         16
                                   No pseudopotential on this center.
   26          6
                                   No pseudopotential on this center.
   27          6
                                   No pseudopotential on this center.
   28          1
                                   No pseudopotential on this center.
   29          1
                                   No pseudopotential on this center.
   30          1
                                   No pseudopotential on this center.
   31          1
                                   No pseudopotential on this center.
   32          1
                                   No pseudopotential on this center.
   33          1
                                   No pseudopotential on this center.
   34          8
                                   No pseudopotential on this center.
   35         16
                                   No pseudopotential on this center.
   36          6
                                   No pseudopotential on this center.
   37          6
                                   No pseudopotential on this center.
   38          1
                                   No pseudopotential on this center.
   39          1
                                   No pseudopotential on this center.
   40          1
                                   No pseudopotential on this center.
   41          1
                                   No pseudopotential on this center.
   42          1
                                   No pseudopotential on this center.
   43          1
                                   No pseudopotential on this center.
 ======================================================================================================
 There are   960 symmetry adapted cartesian basis functions of A   symmetry.
 There are   856 symmetry adapted basis functions of A   symmetry.
   856 basis functions,  1444 primitive gaussians,   960 cartesian basis functions
    93 alpha electrons       93 beta electrons
       nuclear repulsion energy      2147.4180195686 Hartrees.
 NAtoms=   43 NActive=   43 NUniq=   43 SFac= 1.00D+00 NAtFMM=   60 NAOKFM=F Big=F
 Integral buffers will be    131072 words long.
 Raffenetti 1 integral format.
 Two-electron integral symmetry is turned on.
 Nuclear repulsion after empirical dispersion term =     2147.3597991604 Hartrees.
 ------------------------------------------------------------------------------
 Polarizable Continuum Model (PCM)
 =================================
 Model                : PCM.
 Atomic radii         : UFF (Universal Force Field).
 Polarization charges : Total charges.
 Charge compensation  : None.
 Solution method      : On-the-fly selection.
 Cavity type          : Scaled VdW (van der Waals Surface) (Alpha=1.100).
 Cavity algorithm     : GePol (No added spheres)
                        Default sphere list used, NSphG=   43.
                        Lebedev-Laikov grids with approx.  5.0 points / Ang**2.
                        Smoothing algorithm: York/Karplus (Gamma=1.0000).
                        Polarization charges: spherical gaussians, with
                                              point-specific exponents (IZeta= 3).
                        Self-potential: point-specific (ISelfS= 7).
                        Self-field    : sphere-specific E.n sum rule (ISelfD= 2).
 Solvent              : DiMethylSulfoxide, Eps=  46.826000 Eps(inf)=   2.007889
 ------------------------------------------------------------------------------
 One-electron integrals computed using PRISM.
   1 Symmetry operations used in ECPInt.
 ECPInt:  NShTT=   52650 NPrTT=  228617 LenC2=   43133 LenP2D=  113220.
 LDataN:  DoStor=T MaxTD1= 7 Len=  274
 NBasis=   856 RedAO= T EigKep=  1.11D-03  NBF=   856
 NBsUse=   856 1.00D-06 EigRej= -1.00D+00 NBFU=   856
 Defaulting to unpruned grid for atomic number  82.
 Initial guess from the checkpoint file:  "02-PbCl2_dmso.chk"
 B after Tr=    -0.000000    0.000000   -0.000000
         Rot=    1.000000    0.000000   -0.000000    0.000000 Ang=   0.00 deg.
 Requested convergence on RMS density matrix=1.00D-08 within 128 cycles.
 Requested convergence on MAX density matrix=1.00D-06.
 Requested convergence on             energy=1.00D-06.
 No special actions if energy rises.
 Defaulting to unpruned grid for atomic number  82.
 Defaulting to unpruned grid for atomic number  82.
 Defaulting to unpruned grid for atomic number  82.
 Defaulting to unpruned grid for atomic number  82.
 Defaulting to unpruned grid for atomic number  82.
 Inv3:  Mode=1 IEnd=    35130252.
 Iteration    1 A*A^-1 deviation from unit magnitude is 3.11D-15 for   1922.
 Iteration    1 A*A^-1 deviation from orthogonality  is 2.00D-15 for   2419   1122.
 Iteration    1 A^-1*A deviation from unit magnitude is 3.22D-15 for    572.
 Iteration    1 A^-1*A deviation from orthogonality  is 3.56D-12 for   3403   3390.
 Error on total polarization charges =  0.01812
 SCF Done:  E(RCAM-B3LYP) =  -2246.46026614     A.U. after   11 cycles
            NFock= 11  Conv=0.89D-08     -V/T= 2.0140
 DoSCS=F DFT=T ScalE2(SS,OS)=  1.000000  1.000000
 ExpMin= 5.98D-02 ExpMax= 3.74D+05 ExpMxC= 1.18D+03 IAcc=3 IRadAn=         5 AccDes= 0.00D+00
 HarFok:  IExCor=  205 AccDes= 0.00D+00 IRadAn=         5 IDoV=-2 UseB2=F ITyADJ=14
 ICtDFT= 12500011 ScaDFX=  1.000000  1.000000  1.000000  1.000000
 Defaulting to unpruned grid for atomic number  82.
 GSVD:  LWork=       -1280 too small for GESVD, short by        5600 words or        5600 for optimal perf.
 Range of M.O.s used for correlation:    33   856
 NBasis=   856 NAE=    93 NBE=    93 NFC=    32 NFV=     0
 NROrb=    824 NOA=    61 NOB=    61 NVA=   763 NVB=   763

 **** Warning!!: The largest alpha MO coefficient is  0.10045894D+02

 NEqPCM:  Using non-equilibrium solvation (IEInf=1, Eps=  46.8260, EpsInf=   2.0079)
 Inv3:  Mode=1 IEnd=    35130252.
 Iteration    1 A*A^-1 deviation from unit magnitude is 3.66D-15 for   2322.
 Iteration    1 A*A^-1 deviation from orthogonality  is 1.89D-15 for   2993     33.
 Iteration    1 A^-1*A deviation from unit magnitude is 3.44D-15 for   2084.
 Iteration    1 A^-1*A deviation from orthogonality  is 1.44D-15 for   2414   1097.
 Orbital symmetries:
       Occupied  (A) (A) (A) (A) (A) (A) (A) (A) (A) (A) (A) (A)
                 (A) (A) (A) (A) (A) (A) (A) (A) (A) (A) (A) (A)
                 (A) (A) (A) (A) (A) (A) (A) (A) (A) (A) (A) (A)
                 (A) (A) (A) (A) (A) (A) (A) (A) (A) (A) (A) (A)
                 (A) (A) (A) (A) (A) (A) (A) (A) (A) (A) (A) (A)
                 (A) (A) (A) (A) (A) (A) (A) (A) (A) (A) (A) (A)
                 (A) (A) (A) (A) (A) (A) (A) (A) (A) (A) (A) (A)
                 (A) (A) (A) (A) (A) (A) (A) (A) (A)
       Virtual   (A) (A) (A) (A) (A) (A) (A) (A) (A) (A) (A) (A)
                 (A) (A) (A) (A) (A) (A) (A) (A) (A) (A) (A) (A)
                 (A) (A) (A) (A) (A) (A) (A) (A) (A) (A) (A) (A)
                 (A) (A) (A) (A) (A) (A) (A) (A) (A) (A) (A) (A)
                 (A) (A) (A) (A) (A) (A) (A) (A) (A) (A) (A) (A)
                 (A) (A) (A) (A) (A) (A) (A) (A) (A) (A) (A) (A)
                 (A) (A) (A) (A) (A) (A) (A) (A) (A) (A) (A) (A)
                 (A) (A) (A) (A) (A) (A) (A) (A) (A) (A) (A) (A)
                 (A) (A) (A) (A) (A) (A) (A) (A) (A) (A) (A) (A)
                 (A) (A) (A) (A) (A) (A) (A) (A) (A) (A) (A) (A)
                 (A) (A) (A) (A) (A) (A) (A) (A) (A) (A) (A) (A)
                 (A) (A) (A) (A) (A) (A) (A) (A) (A) (A) (A) (A)
                 (A) (A) (A) (A) (A) (A) (A) (A) (A) (A) (A) (A)
                 (A) (A) (A) (A) (A) (A) (A) (A) (A) (A) (A) (A)
                 (A) (A) (A) (A) (A) (A) (A) (A) (A) (A) (A) (A)
                 (A) (A) (A) (A) (A) (A) (A) (A) (A) (A) (A) (A)
                 (A) (A) (A) (A) (A) (A) (A) (A) (A) (A) (A) (A)
                 (A) (A) (A) (A) (A) (A) (A) (A) (A) (A) (A) (A)
                 (A) (A) (A) (A) (A) (A) (A) (A) (A) (A) (A) (A)
                 (A) (A) (A) (A) (A) (A) (A) (A) (A) (A) (A) (A)
                 (A) (A) (A) (A) (A) (A) (A) (A) (A) (A) (A) (A)
                 (A) (A) (A) (A) (A) (A) (A) (A) (A) (A) (A) (A)
                 (A) (A) (A) (A) (A) (A) (A) (A) (A) (A) (A) (A)
                 (A) (A) (A) (A) (A) (A) (A) (A) (A) (A) (A) (A)
                 (A) (A) (A) (A) (A) (A) (A) (A) (A) (A) (A) (A)
                 (A) (A) (A) (A) (A) (A) (A) (A) (A) (A) (A) (A)
                 (A) (A) (A) (A) (A) (A) (A) (A) (A) (A) (A) (A)
                 (A) (A) (A) (A) (A) (A) (A) (A) (A) (A) (A) (A)
                 (A) (A) (A) (A) (A) (A) (A) (A) (A) (A) (A) (A)
                 (A) (A) (A) (A) (A) (A) (A) (A) (A) (A) (A) (A)
                 (A) (A) (A) (A) (A) (A) (A) (A) (A) (A) (A) (A)
                 (A) (A) (A) (A) (A) (A) (A) (A) (A) (A) (A) (A)
                 (A) (A) (A) (A) (A) (A) (A) (A) (A) (A) (A) (A)
                 (A) (A) (A) (A) (A) (A) (A) (A) (A) (A) (A) (A)
                 (A) (A) (A) (A) (A) (A) (A) (A) (A) (A) (A) (A)
                 (A) (A) (A) (A) (A) (A) (A) (A) (A) (A) (A) (A)
                 (A) (A) (A) (A) (A) (A) (A) (A) (A) (A) (A) (A)
                 (A) (A) (A) (A) (A) (A) (A) (A) (A) (A) (A) (A)
                 (A) (A) (A) (A) (A) (A) (A) (A) (A) (A) (A) (A)
                 (A) (A) (A) (A) (A) (A) (A) (A) (A) (A) (A) (A)
                 (A) (A) (A) (A) (A) (A) (A) (A) (A) (A) (A) (A)
                 (A) (A) (A) (A) (A) (A) (A) (A) (A) (A) (A) (A)
                 (A) (A) (A) (A) (A) (A) (A) (A) (A) (A) (A) (A)
                 (A) (A) (A) (A) (A) (A) (A) (A) (A) (A) (A) (A)
                 (A) (A) (A) (A) (A) (A) (A) (A) (A) (A) (A) (A)
                 (A) (A) (A) (A) (A) (A) (A) (A) (A) (A) (A) (A)
                 (A) (A) (A) (A) (A) (A) (A) (A) (A) (A) (A) (A)
                 (A) (A) (A) (A) (A) (A) (A) (A) (A) (A) (A) (A)
                 (A) (A) (A) (A) (A) (A) (A) (A) (A) (A) (A) (A)
                 (A) (A) (A) (A) (A) (A) (A) (A) (A) (A) (A) (A)
                 (A) (A) (A) (A) (A) (A) (A) (A) (A) (A) (A) (A)
                 (A) (A) (A) (A) (A) (A) (A) (A) (A) (A) (A) (A)
                 (A) (A) (A) (A) (A) (A) (A) (A) (A) (A) (A) (A)
                 (A) (A) (A) (A) (A) (A) (A) (A) (A) (A) (A) (A)
                 (A) (A) (A) (A) (A) (A) (A) (A) (A) (A) (A) (A)
                 (A) (A) (A) (A) (A) (A) (A) (A) (A) (A) (A) (A)
                 (A) (A) (A) (A) (A) (A) (A) (A) (A) (A) (A) (A)
                 (A) (A) (A) (A) (A) (A) (A) (A) (A) (A) (A) (A)
                 (A) (A) (A) (A) (A) (A) (A) (A) (A) (A) (A) (A)
                 (A) (A) (A) (A) (A) (A) (A) (A) (A) (A) (A) (A)
                 (A) (A) (A) (A) (A) (A) (A) (A) (A) (A) (A) (A)
                 (A) (A) (A) (A) (A) (A) (A) (A) (A) (A) (A) (A)
                 (A) (A) (A) (A) (A) (A) (A) (A) (A) (A) (A) (A)
                 (A) (A) (A) (A) (A) (A) (A)
    40 initial guesses have been made.
 Convergence on wavefunction:    0.001000000000000
 Iteration     1 Dimension    40 NMult     0 NNew     40
 CISAX will form    40 AO SS matrices at one time.
 Defaulting to unpruned grid for atomic number  82.
 Defaulting to unpruned grid for atomic number  82.
 Defaulting to unpruned grid for atomic number  82.
 Defaulting to unpruned grid for atomic number  82.
 Defaulting to unpruned grid for atomic number  82.
 New state      4 was old state      5
 New state      5 was old state     14
 New state      6 was old state      4
 New state      7 was old state      8
 New state      8 was old state      6
 New state      9 was old state     10
 New state     10 was old state     11
 Iteration     2 Dimension    60 NMult    40 NNew     20
 New state      5 was old state      7
 New state      6 was old state      5
 New state      7 was old state      6
 Iteration     3 Dimension    80 NMult    60 NNew     20
 New state      8 was old state      9
 New state      9 was old state      8
 Iteration     4 Dimension   100 NMult    80 NNew     20
 New state      7 was old state      8
 New state      8 was old state      7
 Iteration     5 Dimension   120 NMult   100 NNew     20
 Iteration     6 Dimension   140 NMult   120 NNew     20
 Iteration     7 Dimension   158 NMult   140 NNew     18
 Iteration     8 Dimension   172 NMult   158 NNew     14
 Iteration     9 Dimension   178 NMult   172 NNew      6
 ***********************************************************************
 Excited states from <AA,BB:AA,BB> singles matrix:
 ***********************************************************************
 
 Ground to excited state transition densities written to RWF  633
 Ground to excited state transition electric dipole moments (Au):
       state          X           Y           Z        Dip. S.      Osc.
         1        -1.0082      0.6092     -0.4367      1.5784      0.2077
         2        -0.3283      0.1794      0.7940      0.7703      0.1055
         3         0.4482      0.7334      0.3196      0.8409      0.1179
         4        -0.1415     -0.2750      0.1941      0.1333      0.0193
         5         0.0551     -0.0218     -0.2557      0.0689      0.0103
         6        -0.1076      0.4591      0.5178      0.4905      0.0744
         7         0.4825      0.5848     -0.1595      0.6001      0.0932
         8        -0.2245      0.4709     -0.0198      0.2725      0.0425
         9         0.0861      0.3031      0.3908      0.2520      0.0398
        10         0.1329     -0.0541      0.1393      0.0400      0.0064
 Ground to excited state transition velocity dipole moments (Au):
       state          X           Y           Z        Dip. S.      Osc.
         1         0.1778     -0.1094      0.0679      0.0482      0.1628
         2         0.0487     -0.0322     -0.1335      0.0212      0.0689
         3        -0.0862     -0.1235     -0.0658      0.0270      0.0856
         4         0.0295      0.0420     -0.0407      0.0043      0.0132
         5        -0.0130      0.0165      0.0458      0.0025      0.0075
         6         0.0192     -0.0820     -0.0971      0.0165      0.0484
         7        -0.1088     -0.1033      0.0408      0.0242      0.0692
         8         0.0625     -0.1103      0.0068      0.0161      0.0459
         9        -0.0244     -0.0744     -0.0999      0.0161      0.0453
        10        -0.0332      0.0105     -0.0438      0.0031      0.0087
 Ground to excited state transition magnetic dipole moments (Au):
       state          X           Y           Z
         1         0.1250      0.5655      0.9510
         2         0.4291     -0.5572      0.7715
         3         0.4501     -0.8007     -0.4460
         4         0.5639      0.2097      0.4532
         5         0.0925     -0.0138     -0.5948
         6        -0.4522      0.0120      0.3249
         7        -0.2621     -0.3431      0.7342
         8         0.2454      0.0857      0.1814
         9         1.2999      1.3325     -0.6471
        10        -0.8139     -1.3059      0.5144
 Ground to excited state transition velocity quadrupole moments (Au):
       state          XX          YY          ZZ          XY          XZ          YZ
         1         0.7092     -0.1663     -0.3322     -0.0489     -0.3753      0.1154
         2        -0.3369     -0.3096     -0.1855     -0.1719     -0.1211     -0.0420
         3         0.3506     -0.0660      0.0305     -0.2036      0.0037     -0.2643
         4         0.5914      0.0591      0.0207     -0.3544      0.1058     -0.0916
         5         0.5099     -0.1986      0.1611     -0.0071      0.0035     -0.1620
         6        -0.1307      0.1770      0.3799     -0.0802     -0.1566      0.2173
         7         0.2374      0.0263      0.0951      0.1980     -0.4859      0.1459
         8         0.4812     -0.8250      0.3743      0.4252      0.6559     -0.2217
         9        -0.6204     -0.2812      0.2310     -0.0290     -0.6210      0.1080
        10        -0.4577      0.0114      0.7062      0.1319      0.1289     -0.0794
 <0|del|b> * <b|rxdel|0> + <0|del|b> * <b|delr+rdel|0>
 Rotatory Strengths (R) in cgs (10**-40 erg-esu-cm/Gauss)
       state          XX          YY          ZZ    R(velocity)    E-M Angle
         1       -74.5469    198.2659    -34.2259     29.8310       84.14
         2      -113.6252   -184.3252     77.0119    -73.6461      114.96
         3       238.7775     -0.1261     61.9182    100.1898       57.81
         4         0.5511    -30.8767     53.1634      7.6126       81.84
         5       -43.6982    -40.8164     -5.4573    -29.9906      160.94
         6       -58.4194    -68.1462     -1.5593    -42.7083      125.16
         7        35.4105     52.4515    197.4188     95.0936       44.82
         8       101.1345     -0.2579    -79.3830      7.1645       79.81
         9      -116.1168     40.9006   -122.4381    -65.8848      105.35
        10       -64.1116     19.0450     17.6819     -9.1283       95.86
 1/2[<0|r|b>*<b|rxdel|0> + (<0|rxdel|b>*<b|r|0>)*]
 Rotatory Strengths (R) in cgs (10**-40 erg-esu-cm/Gauss)
       state          XX          YY          ZZ     R(length)
         1        89.0943   -243.6418    293.7220     46.3915
         2        99.6321     70.6878   -433.1832    -87.6211
         3      -142.6535    415.3058    100.8059    124.4860
         4        56.4407     40.7678    -62.2155     11.6643
         5        -3.6060     -0.2135   -107.5256    -37.1150
         6       -34.4175     -3.8814   -118.9822    -52.4270
         7        89.4336    141.8612     82.8042    104.6997
         8        38.9612    -28.5321      2.5401      4.3231
         9       -79.1775   -285.5806    178.8169    -61.9804
        10        76.4726    -49.9553    -50.6883     -8.0570
  1/2[<0|del|b>*<b|r|0> + (<0|r|b>*<b|del|0>)*] (Au)
       state          X           Y           Z        Dip. S.   Osc.(frdel)
         1        -0.1793     -0.0666     -0.0297      0.2756      0.1837
         2        -0.0160     -0.0058     -0.1060      0.1277      0.0852
         3        -0.0386     -0.0906     -0.0210      0.1503      0.1002
         4        -0.0042     -0.0115     -0.0079      0.0236      0.0158
         5        -0.0007     -0.0004     -0.0117      0.0128      0.0085
         6        -0.0021     -0.0376     -0.0503      0.0900      0.0600
         7        -0.0525     -0.0604     -0.0065      0.1194      0.0796
         8        -0.0140     -0.0519     -0.0001      0.0661      0.0441
         9        -0.0021     -0.0225     -0.0390      0.0637      0.0425
        10        -0.0044     -0.0006     -0.0061      0.0111      0.0074

 Excitation energies and oscillator strengths:
 
 Excited State   1:      Singlet-A      5.3709 eV  230.84 nm  f=0.2077  <S**2>=0.000
      88 -> 94        -0.14399
      93 -> 94         0.63920
 This state for optimization and/or second-order correction.
 Total Energy, E(TD-HF/TD-DFT) =  -2246.26288876    
 Copying the excited state density for this state as the 1-particle RhoCI density.
 
 Excited State   2:      Singlet-A      5.5907 eV  221.77 nm  f=0.1055  <S**2>=0.000
      92 -> 95         0.14339
      92 -> 96         0.13317
      93 -> 95         0.59553
 
 Excited State   3:      Singlet-A      5.7250 eV  216.57 nm  f=0.1179  <S**2>=0.000
      84 -> 96        -0.13117
      85 -> 95        -0.10998
      87 -> 95        -0.13073
      91 -> 94         0.10070
      92 -> 95         0.19964
      93 -> 95        -0.15315
      93 -> 96         0.50623
 
 Excited State   4:      Singlet-A      5.8987 eV  210.19 nm  f=0.0193  <S**2>=0.000
      84 -> 94         0.14667
      85 -> 94        -0.10912
      86 -> 94        -0.10185
      87 -> 94         0.12619
      87 -> 98        -0.14306
      88 -> 94        -0.24249
      88 -> 95         0.14847
      88 -> 98         0.18013
      91 -> 94         0.25483
      93 -> 94        -0.10512
      93 -> 97         0.10612
      93 -> 98        -0.22964
 
 Excited State   5:      Singlet-A      6.1304 eV  202.25 nm  f=0.0103  <S**2>=0.000
      84 -> 98         0.14115
      86 -> 95        -0.20329
      86 -> 96         0.17048
      87 -> 94        -0.16114
      88 -> 94         0.23923
      88 -> 95         0.10178
      88 -> 96        -0.11059
      88 -> 98        -0.10670
      92 -> 94         0.12985
      93 -> 94         0.19698
      93 -> 98        -0.16511
      93 -> 99         0.10249
      93 ->100         0.12133
 
 Excited State   6:      Singlet-A      6.1920 eV  200.23 nm  f=0.0744  <S**2>=0.000
      85 -> 95         0.12449
      87 -> 95         0.10046
      87 -> 96         0.10412
      89 -> 95         0.10984
      92 -> 95        -0.20977
      92 -> 96        -0.19587
      92 -> 97        -0.12523
      93 -> 95         0.23336
      93 -> 96         0.31792
      93 -> 97        -0.13020
      93 -> 99         0.10393
 
 Excited State   7:      Singlet-A      6.3365 eV  195.67 nm  f=0.0932  <S**2>=0.000
      84 -> 95        -0.18548
      84 -> 96         0.13695
      86 -> 94         0.18328
      86 -> 95        -0.14107
      86 -> 98         0.14499
      87 -> 95         0.10418
      87 -> 96        -0.10936
      88 -> 94        -0.18161
      88 -> 98        -0.10260
      90 -> 94        -0.10027
      91 -> 94        -0.15451
      93 -> 95        -0.14689
      93 -> 96         0.23878
      93 ->101        -0.10453
      93 ->106        -0.12585
 
 Excited State   8:      Singlet-A      6.3725 eV  194.56 nm  f=0.0425  <S**2>=0.000
      88 -> 97        -0.10225
      92 -> 95        -0.11664
      92 -> 96        -0.10437
      92 -> 97         0.14557
      92 ->100         0.12060
      93 -> 97         0.48001
      93 -> 98         0.16860
 
 Excited State   9:      Singlet-A      6.4439 eV  192.41 nm  f=0.0398  <S**2>=0.000
      87 -> 97        -0.12818
      87 ->100         0.10446
      88 -> 94        -0.14311
      88 -> 97         0.12545
      88 ->100        -0.23993
      91 ->100         0.15775
      92 -> 97         0.13770
      93 -> 98         0.13943
      93 ->100         0.39738
 
 Excited State  10:      Singlet-A      6.5228 eV  190.08 nm  f=0.0064  <S**2>=0.000
      84 -> 99        -0.12306
      86 -> 99         0.10724
      91 -> 99        -0.11625
      92 -> 97        -0.11046
      93 -> 97         0.10265
      93 -> 99         0.47156
      93 ->102         0.15276
 SavETr:  write IOETrn=   770 NScale= 10 NData=  16 NLR=1 NState=   10 LETran=     190.

 **********************************************************************

            Population analysis using the SCF Density.

 **********************************************************************

 Orbital symmetries:
       Occupied  (A) (A) (A) (A) (A) (A) (A) (A) (A) (A) (A) (A)
                 (A) (A) (A) (A) (A) (A) (A) (A) (A) (A) (A) (A)
                 (A) (A) (A) (A) (A) (A) (A) (A) (A) (A) (A) (A)
                 (A) (A) (A) (A) (A) (A) (A) (A) (A) (A) (A) (A)
                 (A) (A) (A) (A) (A) (A) (A) (A) (A) (A) (A) (A)
                 (A) (A) (A) (A) (A) (A) (A) (A) (A) (A) (A) (A)
                 (A) (A) (A) (A) (A) (A) (A) (A) (A) (A) (A) (A)
                 (A) (A) (A) (A) (A) (A) (A) (A) (A)
       Virtual   (A) (A) (A) (A) (A) (A) (A) (A) (A) (A) (A) (A)
                 (A) (A) (A) (A) (A) (A) (A) (A) (A) (A) (A) (A)
                 (A) (A) (A) (A) (A) (A) (A) (A) (A) (A) (A) (A)
                 (A) (A) (A) (A) (A) (A) (A) (A) (A) (A) (A) (A)
                 (A) (A) (A) (A) (A) (A) (A) (A) (A) (A) (A) (A)
                 (A) (A) (A) (A) (A) (A) (A) (A) (A) (A) (A) (A)
                 (A) (A) (A) (A) (A) (A) (A) (A) (A) (A) (A) (A)
                 (A) (A) (A) (A) (A) (A) (A) (A) (A) (A) (A) (A)
                 (A) (A) (A) (A) (A) (A) (A) (A) (A) (A) (A) (A)
                 (A) (A) (A) (A) (A) (A) (A) (A) (A) (A) (A) (A)
                 (A) (A) (A) (A) (A) (A) (A) (A) (A) (A) (A) (A)
                 (A) (A) (A) (A) (A) (A) (A) (A) (A) (A) (A) (A)
                 (A) (A) (A) (A) (A) (A) (A) (A) (A) (A) (A) (A)
                 (A) (A) (A) (A) (A) (A) (A) (A) (A) (A) (A) (A)
                 (A) (A) (A) (A) (A) (A) (A) (A) (A) (A) (A) (A)
                 (A) (A) (A) (A) (A) (A) (A) (A) (A) (A) (A) (A)
                 (A) (A) (A) (A) (A) (A) (A) (A) (A) (A) (A) (A)
                 (A) (A) (A) (A) (A) (A) (A) (A) (A) (A) (A) (A)
                 (A) (A) (A) (A) (A) (A) (A) (A) (A) (A) (A) (A)
                 (A) (A) (A) (A) (A) (A) (A) (A) (A) (A) (A) (A)
                 (A) (A) (A) (A) (A) (A) (A) (A) (A) (A) (A) (A)
                 (A) (A) (A) (A) (A) (A) (A) (A) (A) (A) (A) (A)
                 (A) (A) (A) (A) (A) (A) (A) (A) (A) (A) (A) (A)
                 (A) (A) (A) (A) (A) (A) (A) (A) (A) (A) (A) (A)
                 (A) (A) (A) (A) (A) (A) (A) (A) (A) (A) (A) (A)
                 (A) (A) (A) (A) (A) (A) (A) (A) (A) (A) (A) (A)
                 (A) (A) (A) (A) (A) (A) (A) (A) (A) (A) (A) (A)
                 (A) (A) (A) (A) (A) (A) (A) (A) (A) (A) (A) (A)
                 (A) (A) (A) (A) (A) (A) (A) (A) (A) (A) (A) (A)
                 (A) (A) (A) (A) (A) (A) (A) (A) (A) (A) (A) (A)
                 (A) (A) (A) (A) (A) (A) (A) (A) (A) (A) (A) (A)
                 (A) (A) (A) (A) (A) (A) (A) (A) (A) (A) (A) (A)
                 (A) (A) (A) (A) (A) (A) (A) (A) (A) (A) (A) (A)
                 (A) (A) (A) (A) (A) (A) (A) (A) (A) (A) (A) (A)
                 (A) (A) (A) (A) (A) (A) (A) (A) (A) (A) (A) (A)
                 (A) (A) (A) (A) (A) (A) (A) (A) (A) (A) (A) (A)
                 (A) (A) (A) (A) (A) (A) (A) (A) (A) (A) (A) (A)
                 (A) (A) (A) (A) (A) (A) (A) (A) (A) (A) (A) (A)
                 (A) (A) (A) (A) (A) (A) (A) (A) (A) (A) (A) (A)
                 (A) (A) (A) (A) (A) (A) (A) (A) (A) (A) (A) (A)
                 (A) (A) (A) (A) (A) (A) (A) (A) (A) (A) (A) (A)
                 (A) (A) (A) (A) (A) (A) (A) (A) (A) (A) (A) (A)
                 (A) (A) (A) (A) (A) (A) (A) (A) (A) (A) (A) (A)
                 (A) (A) (A) (A) (A) (A) (A) (A) (A) (A) (A) (A)
                 (A) (A) (A) (A) (A) (A) (A) (A) (A) (A) (A) (A)
                 (A) (A) (A) (A) (A) (A) (A) (A) (A) (A) (A) (A)
                 (A) (A) (A) (A) (A) (A) (A) (A) (A) (A) (A) (A)
                 (A) (A) (A) (A) (A) (A) (A) (A) (A) (A) (A) (A)
                 (A) (A) (A) (A) (A) (A) (A) (A) (A) (A) (A) (A)
                 (A) (A) (A) (A) (A) (A) (A) (A) (A) (A) (A) (A)
                 (A) (A) (A) (A) (A) (A) (A) (A) (A) (A) (A) (A)
                 (A) (A) (A) (A) (A) (A) (A) (A) (A) (A) (A) (A)
                 (A) (A) (A) (A) (A) (A) (A) (A) (A) (A) (A) (A)
                 (A) (A) (A) (A) (A) (A) (A) (A) (A) (A) (A) (A)
                 (A) (A) (A) (A) (A) (A) (A) (A) (A) (A) (A) (A)
                 (A) (A) (A) (A) (A) (A) (A) (A) (A) (A) (A) (A)
                 (A) (A) (A) (A) (A) (A) (A) (A) (A) (A) (A) (A)
                 (A) (A) (A) (A) (A) (A) (A) (A) (A) (A) (A) (A)
                 (A) (A) (A) (A) (A) (A) (A) (A) (A) (A) (A) (A)
                 (A) (A) (A) (A) (A) (A) (A) (A) (A) (A) (A) (A)
                 (A) (A) (A) (A) (A) (A) (A) (A) (A) (A) (A) (A)
                 (A) (A) (A) (A) (A) (A) (A) (A) (A) (A) (A) (A)
                 (A) (A) (A) (A) (A) (A) (A) (A) (A) (A) (A) (A)
                 (A) (A) (A) (A) (A) (A) (A)
 The electronic state is 1-A.
 Alpha  occ. eigenvalues --  -89.08342 -89.07959 -89.07927 -89.07845 -19.19004
 Alpha  occ. eigenvalues --  -19.18579 -19.18104 -19.18042 -10.28559 -10.28520
 Alpha  occ. eigenvalues --  -10.28296 -10.28152 -10.28077 -10.28057 -10.27791
 Alpha  occ. eigenvalues --  -10.27672  -8.12279  -8.11893  -8.11828  -8.11757
 Alpha  occ. eigenvalues --   -6.08781  -6.08615  -6.08383  -6.08310  -6.08242
 Alpha  occ. eigenvalues --   -6.08238  -6.08185  -6.08107  -6.08071  -6.07672
 Alpha  occ. eigenvalues --   -6.07629  -6.07558  -1.09289  -1.08578  -1.08302
 Alpha  occ. eigenvalues --   -1.08260  -0.88677  -0.88425  -0.88148  -0.88125
 Alpha  occ. eigenvalues --   -0.80119  -0.80079  -0.79927  -0.79571  -0.78365
 Alpha  occ. eigenvalues --   -0.77923  -0.69751  -0.69308  -0.69112  -0.68521
 Alpha  occ. eigenvalues --   -0.57545  -0.54753  -0.54051  -0.53944  -0.53818
 Alpha  occ. eigenvalues --   -0.53532  -0.53287  -0.53177  -0.52715  -0.52490
 Alpha  occ. eigenvalues --   -0.52265  -0.52098  -0.51657  -0.49301  -0.49114
 Alpha  occ. eigenvalues --   -0.49017  -0.48788  -0.48393  -0.48086  -0.47588
 Alpha  occ. eigenvalues --   -0.45881  -0.45761  -0.45604  -0.45418  -0.44932
 Alpha  occ. eigenvalues --   -0.43808  -0.43253  -0.42982  -0.41917  -0.36547
 Alpha  occ. eigenvalues --   -0.36533  -0.36221  -0.35552  -0.33740  -0.33614
 Alpha  occ. eigenvalues --   -0.33056  -0.32237  -0.31854  -0.31184  -0.30995
 Alpha  occ. eigenvalues --   -0.30941  -0.30711  -0.26602
 Alpha virt. eigenvalues --    0.03065   0.03828   0.04559   0.05760   0.06305
 Alpha virt. eigenvalues --    0.06348   0.06673   0.07247   0.07682   0.08381
 Alpha virt. eigenvalues --    0.08793   0.09279   0.09748   0.10266   0.10508
 Alpha virt. eigenvalues --    0.10970   0.11213   0.11910   0.12100   0.12306
 Alpha virt. eigenvalues --    0.12820   0.13014   0.13121   0.13566   0.13974
 Alpha virt. eigenvalues --    0.15077   0.15724   0.15815   0.16323   0.16693
 Alpha virt. eigenvalues --    0.17257   0.17517   0.17786   0.18506   0.18934
 Alpha virt. eigenvalues --    0.20156   0.20433   0.22053   0.23513   0.25460
 Alpha virt. eigenvalues --    0.25795   0.25853   0.26336   0.26572   0.26920
 Alpha virt. eigenvalues --    0.27330   0.27892   0.28178   0.28561   0.29213
 Alpha virt. eigenvalues --    0.29530   0.30136   0.30591   0.31232   0.31534
 Alpha virt. eigenvalues --    0.31927   0.33172   0.33322   0.33645   0.34842
 Alpha virt. eigenvalues --    0.35650   0.36300   0.36449   0.37183   0.37894
 Alpha virt. eigenvalues --    0.38297   0.38671   0.39232   0.39421   0.39686
 Alpha virt. eigenvalues --    0.39880   0.40952   0.41437   0.41833   0.42553
 Alpha virt. eigenvalues --    0.42955   0.44166   0.44375   0.44794   0.45089
 Alpha virt. eigenvalues --    0.45386   0.45852   0.46077   0.46154   0.47366
 Alpha virt. eigenvalues --    0.48193   0.49072   0.49265   0.49520   0.50125
 Alpha virt. eigenvalues --    0.50519   0.50929   0.51145   0.51332   0.51741
 Alpha virt. eigenvalues --    0.51884   0.52353   0.52543   0.52946   0.53419
 Alpha virt. eigenvalues --    0.53759   0.54040   0.54321   0.54863   0.55139
 Alpha virt. eigenvalues --    0.55444   0.56213   0.56799   0.57749   0.57839
 Alpha virt. eigenvalues --    0.58336   0.59086   0.59874   0.60849   0.61809
 Alpha virt. eigenvalues --    0.62875   0.64437   0.65846   0.67044   0.67953
 Alpha virt. eigenvalues --    0.68678   0.69602   0.70683   0.71092   0.72430
 Alpha virt. eigenvalues --    0.73679   0.74052   0.74860   0.75983   0.76724
 Alpha virt. eigenvalues --    0.77079   0.77177   0.77750   0.78204   0.78364
 Alpha virt. eigenvalues --    0.78659   0.78891   0.79299   0.80199   0.80372
 Alpha virt. eigenvalues --    0.80978   0.81416   0.81767   0.82038   0.82223
 Alpha virt. eigenvalues --    0.82785   0.84101   0.84396   0.84794   0.85147
 Alpha virt. eigenvalues --    0.85797   0.86259   0.87249   0.87838   0.88176
 Alpha virt. eigenvalues --    0.88715   0.89226   0.90226   0.91084   0.92158
 Alpha virt. eigenvalues --    0.92831   0.93008   0.93455   0.94492   0.94824
 Alpha virt. eigenvalues --    0.95065   0.95777   0.96261   0.96713   0.96872
 Alpha virt. eigenvalues --    0.97617   0.98175   0.98273   1.00140   1.00218
 Alpha virt. eigenvalues --    1.00894   1.01724   1.02929   1.03316   1.04082
 Alpha virt. eigenvalues --    1.04632   1.04990   1.05518   1.05884   1.06372
 Alpha virt. eigenvalues --    1.06707   1.07079   1.07613   1.07963   1.08601
 Alpha virt. eigenvalues --    1.09322   1.09977   1.10562   1.11629   1.11812
 Alpha virt. eigenvalues --    1.12196   1.12578   1.12691   1.13366   1.14010
 Alpha virt. eigenvalues --    1.14245   1.15462   1.16300   1.16720   1.17321
 Alpha virt. eigenvalues --    1.17919   1.18331   1.19287   1.20522   1.20778
 Alpha virt. eigenvalues --    1.21003   1.21313   1.21719   1.22271   1.23158
 Alpha virt. eigenvalues --    1.23805   1.24720   1.25177   1.26138   1.26967
 Alpha virt. eigenvalues --    1.27813   1.28546   1.29001   1.30799   1.31516
 Alpha virt. eigenvalues --    1.32041   1.32431   1.32690   1.34257   1.34894
 Alpha virt. eigenvalues --    1.35319   1.36390   1.36521   1.36819   1.37033
 Alpha virt. eigenvalues --    1.37394   1.37661   1.38324   1.39059   1.39386
 Alpha virt. eigenvalues --    1.39910   1.40453   1.40560   1.41009   1.41218
 Alpha virt. eigenvalues --    1.41679   1.41943   1.42521   1.43373   1.44315
 Alpha virt. eigenvalues --    1.44995   1.45096   1.46229   1.47466   1.48629
 Alpha virt. eigenvalues --    1.49180   1.50239   1.51342   1.52089   1.53102
 Alpha virt. eigenvalues --    1.53851   1.54704   1.54796   1.55084   1.56195
 Alpha virt. eigenvalues --    1.56351   1.56875   1.57680   1.58614   1.59167
 Alpha virt. eigenvalues --    1.60385   1.60766   1.61590   1.62733   1.62890
 Alpha virt. eigenvalues --    1.63693   1.63816   1.64269   1.64811   1.65610
 Alpha virt. eigenvalues --    1.66173   1.67607   1.68468   1.69070   1.69512
 Alpha virt. eigenvalues --    1.71187   1.71810   1.73625   1.74259   1.75249
 Alpha virt. eigenvalues --    1.75355   1.75944   1.76444   1.76656   1.77448
 Alpha virt. eigenvalues --    1.78464   1.81006   1.81378   1.82274   1.83033
 Alpha virt. eigenvalues --    1.83440   1.85111   1.86747   1.87737   1.88179
 Alpha virt. eigenvalues --    1.88893   1.89371   1.95638   1.98973   2.00319
 Alpha virt. eigenvalues --    2.01107   2.01606   2.02313   2.02947   2.03536
 Alpha virt. eigenvalues --    2.03644   2.04625   2.05300   2.05509   2.06555
 Alpha virt. eigenvalues --    2.07062   2.08312   2.09389   2.10288   2.17864
 Alpha virt. eigenvalues --    2.19094   2.19983   2.23279   2.24466   2.24630
 Alpha virt. eigenvalues --    2.25404   2.26731   2.30271   2.31673   2.32661
 Alpha virt. eigenvalues --    2.34115   2.34376   2.34812   2.35236   2.35548
 Alpha virt. eigenvalues --    2.36283   2.37021   2.37678   2.39472   2.40146
 Alpha virt. eigenvalues --    2.41875   2.42214   2.42799   2.43742   2.44411
 Alpha virt. eigenvalues --    2.44847   2.45845   2.47112   2.47182   2.47862
 Alpha virt. eigenvalues --    2.48722   2.49355   2.51774   2.52320   2.53967
 Alpha virt. eigenvalues --    2.55137   2.57174   2.58112   2.58479   2.59350
 Alpha virt. eigenvalues --    2.60774   2.61915   2.63640   2.64920   2.68005
 Alpha virt. eigenvalues --    2.70131   2.70630   2.70735   2.71076   2.71438
 Alpha virt. eigenvalues --    2.71771   2.72856   2.73610   2.74734   2.75953
 Alpha virt. eigenvalues --    2.76108   2.76953   2.77032   2.77336   2.78210
 Alpha virt. eigenvalues --    2.78952   2.79683   2.80498   2.82026   2.83219
 Alpha virt. eigenvalues --    2.84072   2.84395   2.84949   2.85447   2.85809
 Alpha virt. eigenvalues --    2.85909   2.86414   2.86819   2.87275   2.87784
 Alpha virt. eigenvalues --    2.88478   2.89399   2.90203   2.90678   2.96877
 Alpha virt. eigenvalues --    2.97543   2.97799   2.98131   2.98643   2.98931
 Alpha virt. eigenvalues --    2.99046   2.99825   2.99940   3.00823   3.01455
 Alpha virt. eigenvalues --    3.01664   3.01943   3.02368   3.03257   3.03573
 Alpha virt. eigenvalues --    3.05733   3.06221   3.06921   3.07242   3.08139
 Alpha virt. eigenvalues --    3.08652   3.08849   3.09216   3.10397   3.11103
 Alpha virt. eigenvalues --    3.11962   3.12155   3.12499   3.12771   3.13512
 Alpha virt. eigenvalues --    3.13806   3.14823   3.15180   3.15459   3.16762
 Alpha virt. eigenvalues --    3.19802   3.19957   3.20245   3.20941   3.21434
 Alpha virt. eigenvalues --    3.21596   3.22301   3.23135   3.27708   3.28764
 Alpha virt. eigenvalues --    3.28948   3.29263   3.31565   3.31856   3.32589
 Alpha virt. eigenvalues --    3.33262   3.33790   3.34683   3.34698   3.34882
 Alpha virt. eigenvalues --    3.35238   3.36454   3.36615   3.36755   3.37573
 Alpha virt. eigenvalues --    3.38090   3.39102   3.41554   3.42169   3.42537
 Alpha virt. eigenvalues --    3.42906   3.43091   3.43202   3.43647   3.43702
 Alpha virt. eigenvalues --    3.44373   3.44533   3.44990   3.45958   3.46163
 Alpha virt. eigenvalues --    3.47334   3.47598   3.47829   3.48698   3.49139
 Alpha virt. eigenvalues --    3.49496   3.49734   3.49904   3.50617   3.51411
 Alpha virt. eigenvalues --    3.51559   3.52114   3.55022   3.55584   3.55921
 Alpha virt. eigenvalues --    3.57097   3.60331   3.60625   3.60879   3.61756
 Alpha virt. eigenvalues --    3.62043   3.62800   3.63119   3.63627   3.63857
 Alpha virt. eigenvalues --    3.64682   3.65833   3.66072   3.77618   3.77969
 Alpha virt. eigenvalues --    3.78251   3.78534   3.79663   3.80409   3.81552
 Alpha virt. eigenvalues --    3.82247   3.83147   3.83549   3.84672   3.85115
 Alpha virt. eigenvalues --    3.86308   3.86709   3.87391   3.87478   3.87701
 Alpha virt. eigenvalues --    3.88109   3.88244   3.89478   3.89755   3.90500
 Alpha virt. eigenvalues --    3.90950   3.91399   3.92193   3.92648   3.92959
 Alpha virt. eigenvalues --    3.93407   3.93763   3.94111   3.95597   3.96159
 Alpha virt. eigenvalues --    3.96352   3.96744   3.97034   3.97426   3.98028
 Alpha virt. eigenvalues --    3.98419   3.99180   3.99769   4.00515   4.01048
 Alpha virt. eigenvalues --    4.01292   4.02135   4.02494   4.04077   4.04122
 Alpha virt. eigenvalues --    4.04781   4.05128   4.05663   4.06066   4.06591
 Alpha virt. eigenvalues --    4.07453   4.08364   4.08501   4.08951   4.09937
 Alpha virt. eigenvalues --    4.10811   4.11146   4.12002   4.12354   4.12990
 Alpha virt. eigenvalues --    4.14042   4.14525   4.14670   4.15209   4.15775
 Alpha virt. eigenvalues --    4.16260   4.16733   4.17407   4.17720   4.18563
 Alpha virt. eigenvalues --    4.19793   4.20487   4.20977   4.21855   4.22542
 Alpha virt. eigenvalues --    4.23226   4.24373   4.24488   4.25006   4.25878
 Alpha virt. eigenvalues --    4.27919   4.28002   4.28513   4.32068   4.33321
 Alpha virt. eigenvalues --    4.35767   4.40809   4.42226   4.43905   4.46839
 Alpha virt. eigenvalues --    4.61185   4.61278   4.61680   4.61859   4.65244
 Alpha virt. eigenvalues --    4.65464   4.67733   4.68368   4.73450   4.73976
 Alpha virt. eigenvalues --    4.74360   4.74772   4.74861   4.75261   4.75588
 Alpha virt. eigenvalues --    4.75723   4.76073   4.77091   4.77172   4.77402
 Alpha virt. eigenvalues --    4.77548   4.78323   4.79015   4.80199   4.90089
 Alpha virt. eigenvalues --    4.90572   4.90866   4.91139   4.93482   4.93818
 Alpha virt. eigenvalues --    4.94128   4.94510   4.99863   5.00639   5.01129
 Alpha virt. eigenvalues --    5.01942   5.03812   5.04044   5.04803   5.04925
 Alpha virt. eigenvalues --    5.05194   5.05501   5.05808   5.05887   5.05975
 Alpha virt. eigenvalues --    5.06453   5.06888   5.07857   5.17712   5.18888
 Alpha virt. eigenvalues --    5.19144   5.20438   5.20939   5.21613   5.21812
 Alpha virt. eigenvalues --    5.21976   5.22432   5.23017   5.23198   5.23260
 Alpha virt. eigenvalues --    5.23333   5.23778   5.23925   5.24093   5.24520
 Alpha virt. eigenvalues --    5.24627   5.24702   5.24788   5.24992   5.25181
 Alpha virt. eigenvalues --    5.25786   5.26001   5.26272   5.26418   5.26569
 Alpha virt. eigenvalues --    5.26723   5.26979   5.27142   5.27507   5.28163
 Alpha virt. eigenvalues --    5.29218   5.29711   5.30376   5.30695   5.30827
 Alpha virt. eigenvalues --    5.31093   5.31298   5.31523   5.31808   5.32395
 Alpha virt. eigenvalues --    5.33004   5.33247   5.33472   5.34605   5.34811
 Alpha virt. eigenvalues --    5.35315   5.35754   5.36407   5.36681   5.37118
 Alpha virt. eigenvalues --    5.46785   5.47176   5.47384   5.48378   5.48775
 Alpha virt. eigenvalues --    5.49138   5.49894   5.50557   5.73620   5.76390
 Alpha virt. eigenvalues --    5.76734   5.80144   5.81352   5.82559   5.83309
 Alpha virt. eigenvalues --    5.84921   5.85536   5.85757   5.87170   5.87680
 Alpha virt. eigenvalues --    5.88477   5.89364   5.91563   5.92070   5.93783
 Alpha virt. eigenvalues --    5.94336   5.95180   5.96642   6.37785   6.38427
 Alpha virt. eigenvalues --    6.39173   6.39436   6.41355   6.41556   6.44579
 Alpha virt. eigenvalues --    6.44867   6.69095   6.69779   6.70721   6.71629
[...]
     4  O    0.001231   0.000003  -0.000022  -0.000009  -0.000013  -0.000080
     5  S    0.000150  -0.000000   0.000003   0.000000   0.000002  -0.000580
     6  C    0.000010  -0.000000  -0.000000  -0.000000  -0.000000  -0.000001
     7  C   -0.000056   0.000000  -0.000000   0.000000   0.000001  -0.004198
     8  H   -0.000000  -0.000000  -0.000000  -0.000000  -0.000000   0.000000
     9  H    0.000068  -0.000000   0.000000  -0.000000  -0.000002   0.021319
    10  H   -0.000000  -0.000000   0.000000  -0.000000  -0.000000   0.000001
    11  H   -0.000002   0.000000  -0.000000   0.000000   0.000000   0.000840
    12  H    0.000000  -0.000000   0.000000   0.000000   0.000000  -0.000051
    13  H   -0.000005   0.000000  -0.000000   0.000000   0.000000  -0.000422
    14  O    0.002247   0.002776   0.002841   0.006262   0.006103   0.000413
    15  S   -0.023029  -0.013610  -0.019520  -0.030067  -0.027670   0.000152
    16  C    0.004986   0.374730  -0.000270   0.386148  -0.008865   0.000000
    17  C    0.391839  -0.001921   0.372268  -0.007804   0.384993  -0.000012
    18  H   -0.000139  -0.021050  -0.000178  -0.027884  -0.000385  -0.000000
    19  H    0.540202  -0.000307  -0.020671  -0.000284  -0.027954   0.000011
    20  H   -0.000307   0.551873  -0.000827  -0.019329   0.001362  -0.000000
    21  H   -0.020671  -0.000827   0.558118   0.001366  -0.018739  -0.000000
    22  H   -0.000284  -0.019329   0.001366   0.562489   0.007340  -0.000002
    23  H   -0.027954   0.001362  -0.018739   0.007340   0.562440   0.000000
    24  O    0.000011  -0.000000  -0.000000  -0.000002   0.000000   8.344896
    25  S    0.000000  -0.000000   0.000000  -0.000000  -0.000000   0.389160
    26  C   -0.000000  -0.000000  -0.000000  -0.000000  -0.000000  -0.041457
    27  C   -0.000000   0.000000  -0.000000   0.000000  -0.000000  -0.036653
    28  H   -0.000000   0.000000   0.000000   0.000000   0.000000   0.002051
    29  H    0.000000  -0.000000   0.000000  -0.000000   0.000000  -0.000704
    30  H   -0.000000   0.000000   0.000000   0.000000   0.000000   0.002263
    31  H   -0.000000   0.000000  -0.000000  -0.000000  -0.000000   0.002759
    32  H    0.000000  -0.000000  -0.000000  -0.000000  -0.000000   0.000383
    33  H   -0.000000   0.000000  -0.000000   0.000000   0.000000   0.001686
    34  O   -0.000002  -0.000122   0.000003   0.000131  -0.000015   0.000053
    35  S    0.000000   0.000023   0.000002   0.000050   0.000002  -0.000006
    36  C    0.000000  -0.000003   0.000000   0.000002   0.000000   0.000002
    37  C   -0.000001  -0.000000  -0.000000  -0.000001  -0.000000   0.000002
    38  H    0.000000   0.000000   0.000000  -0.000002  -0.000000   0.000000
    39  H   -0.000002   0.000007   0.000004   0.000004   0.000001  -0.000001
    40  H    0.000000  -0.000000   0.000000  -0.000000   0.000000   0.000000
    41  H   -0.000000  -0.000000  -0.000000   0.000000   0.000000   0.000000
    42  H    0.000000  -0.000000   0.000000   0.000000   0.000000   0.000001
    43  H   -0.000001   0.000001  -0.000000   0.000001   0.000000   0.000018
              25         26         27         28         29         30
     1  Pb  -0.010000   0.000882  -0.024911  -0.000030   0.007652  -0.000016
     2  Cl   0.000879  -0.000028  -0.023262   0.000003  -0.001672  -0.000008
     3  Cl   0.002084   0.000021  -0.034000   0.000001   0.073500   0.000001
     4  O   -0.000027  -0.000029   0.000014   0.000001   0.000001  -0.000000
     5  S    0.000080   0.000051  -0.000031  -0.000008   0.000001  -0.000002
     6  C   -0.000001  -0.000008  -0.000011  -0.000003  -0.000001  -0.000000
     7  C   -0.001235  -0.001631  -0.000007  -0.000939  -0.000109  -0.000057
     8  H   -0.000000   0.000000   0.000000  -0.000000   0.000000   0.000000
     9  H    0.000289  -0.004074   0.000851   0.001660  -0.000024   0.000226
    10  H    0.000000   0.000001  -0.000000   0.000000  -0.000000   0.000000
    11  H   -0.000193  -0.000022  -0.000007  -0.000006  -0.000008   0.000011
    12  H    0.000006  -0.000013   0.000046   0.000001   0.000004  -0.000000
    13  H   -0.000553  -0.000625  -0.001023  -0.000117  -0.000220  -0.000020
    14  O   -0.000063  -0.000001   0.000010  -0.000001   0.000022  -0.000000
    15  S    0.000004  -0.000000  -0.000004  -0.000000   0.000010  -0.000000
    16  C   -0.000000  -0.000000   0.000000  -0.000000   0.000000   0.000000
    17  C   -0.000001  -0.000000  -0.000000   0.000000   0.000000   0.000000
    18  H   -0.000000  -0.000000   0.000000  -0.000000  -0.000002  -0.000000
    19  H    0.000000  -0.000000  -0.000000  -0.000000   0.000000  -0.000000
    20  H   -0.000000  -0.000000   0.000000   0.000000  -0.000000   0.000000
    21  H    0.000000  -0.000000  -0.000000   0.000000   0.000000   0.000000
    22  H   -0.000000  -0.000000   0.000000   0.000000  -0.000000   0.000000
    23  H   -0.000000  -0.000000  -0.000000   0.000000   0.000000   0.000000
    24  O    0.389160  -0.041457  -0.036653   0.002051  -0.000704   0.002263
    25  S   14.677518   0.248554   0.248493  -0.021516  -0.020665  -0.008721
    26  C    0.248554   4.986567  -0.043299   0.388239   0.002380   0.380586
    27  C    0.248493  -0.043299   5.242399   0.004614   0.289735   0.000134
    28  H   -0.021516   0.388239   0.004614   0.534209  -0.000176  -0.016850
    29  H   -0.020665   0.002380   0.289735  -0.000176   0.628080  -0.000060
    30  H   -0.008721   0.380586   0.000134  -0.016850  -0.000060   0.523604
    31  H   -0.004127  -0.001297   0.367448  -0.000201  -0.016396  -0.000343
    32  H   -0.028148   0.396411  -0.005152  -0.027271   0.000392  -0.023916
    33  H   -0.028603  -0.009355   0.321961  -0.000029  -0.050477   0.000930
    34  O   -0.000002   0.000000  -0.000000  -0.000000   0.000040  -0.000000
    35  S   -0.000002   0.000000  -0.000003   0.000000   0.000008   0.000000
    36  C   -0.000001  -0.000000   0.000004  -0.000000  -0.000017  -0.000000
    37  C    0.000001  -0.000000  -0.000012  -0.000000   0.000000  -0.000000
    38  H   -0.000001  -0.000000   0.000015  -0.000000  -0.000044  -0.000000
    39  H   -0.000000   0.000000  -0.000000   0.000000  -0.000000   0.000000
    40  H   -0.000000  -0.000000   0.000001  -0.000000  -0.000001  -0.000000
    41  H   -0.000000   0.000000   0.000000  -0.000000   0.000000  -0.000000
    42  H    0.000008   0.000001   0.000023  -0.000000   0.000080  -0.000000
    43  H   -0.000008   0.000002   0.000098  -0.000000   0.000012  -0.000000
              31         32         33         34         35         36
     1  Pb   0.000263   0.001068  -0.006278  -0.010599  -0.006371  -0.008949
     2  Cl   0.000070  -0.000478   0.059260  -0.000284   0.002462  -0.030250
     3  Cl   0.000040   0.000010  -0.003952  -0.002260  -0.002038   0.001432
     4  O    0.000000  -0.000005  -0.000004  -0.000474  -0.001656  -0.000093
     5  S   -0.000000   0.000079   0.000016   0.000147   0.000169   0.000021
     6  C    0.000000   0.000007   0.000079  -0.000120   0.000137  -0.000089
     7  C    0.000044  -0.001153  -0.000920  -0.000032   0.000003  -0.000024
     8  H    0.000000   0.000000  -0.000001   0.000011  -0.000001   0.000000
     9  H   -0.000069  -0.001595   0.000401  -0.000003  -0.000001  -0.000000
    10  H    0.000000  -0.000002   0.000000  -0.000002  -0.000002  -0.000000
    11  H    0.000003   0.000595   0.000094  -0.000000  -0.000000   0.000000
    12  H   -0.000001   0.000011  -0.000204  -0.000051   0.000112   0.000218
    13  H    0.000065  -0.000675   0.002641  -0.000002  -0.000070   0.000150
    14  O    0.000000   0.000001  -0.000002  -0.004298   0.000086  -0.000069
    15  S    0.000000  -0.000000   0.000000   0.009899  -0.000185   0.000217
    16  C    0.000000   0.000000   0.000000  -0.011713   0.000249   0.000037
    17  C    0.000000  -0.000000   0.000000   0.000825   0.000002   0.000001
    18  H    0.000000  -0.000000   0.000000   0.018006  -0.002072  -0.000132
    19  H   -0.000000   0.000000  -0.000000  -0.000002   0.000000   0.000000
    20  H    0.000000  -0.000000   0.000000  -0.000122   0.000023  -0.000003
    21  H   -0.000000  -0.000000  -0.000000   0.000003   0.000002   0.000000
    22  H   -0.000000  -0.000000   0.000000   0.000131   0.000050   0.000002
    23  H   -0.000000  -0.000000   0.000000  -0.000015   0.000002   0.000000
    24  O    0.002759   0.000383   0.001686   0.000053  -0.000006   0.000002
    25  S   -0.004127  -0.028148  -0.028603  -0.000002  -0.000002  -0.000001
    26  C   -0.001297   0.396411  -0.009355   0.000000   0.000000  -0.000000
    27  C    0.367448  -0.005152   0.321961  -0.000000  -0.000003   0.000004
    28  H   -0.000201  -0.027271  -0.000029  -0.000000   0.000000  -0.000000
    29  H   -0.016396   0.000392  -0.050477   0.000040   0.000008  -0.000017
    30  H   -0.000343  -0.023916   0.000930  -0.000000   0.000000  -0.000000
    31  H    0.528105   0.000758  -0.017388   0.000000  -0.000000   0.000001
    32  H    0.000758   0.553859   0.002934   0.000000  -0.000000   0.000000
    33  H   -0.017388   0.002934   0.639751   0.000014  -0.000027   0.000022
    34  O    0.000000   0.000000   0.000014   8.379768   0.352603  -0.031470
    35  S   -0.000000  -0.000000  -0.000027   0.352603  14.676388   0.269834
    36  C    0.000001   0.000000   0.000022  -0.031470   0.269834   5.084148
    37  C    0.000000  -0.000000   0.000096  -0.033623   0.271736  -0.039259
    38  H   -0.000000  -0.000000   0.000000   0.001910  -0.021393   0.364919
    39  H   -0.000000  -0.000000  -0.000000   0.000892  -0.018917   0.004180
    40  H    0.000000   0.000000   0.000000   0.002729  -0.013166   0.364979
    41  H    0.000000   0.000000  -0.000000   0.002765  -0.013696   0.000316
    42  H   -0.000002  -0.000002   0.000111   0.000482  -0.025567   0.297714
    43  H    0.000000   0.000001  -0.000422   0.002142  -0.029976  -0.009247
              37         38         39         40         41         42
     1  Pb  -0.008690   0.004757   0.002786   0.000827  -0.000890  -0.005803
     2  Cl  -0.035482  -0.000124  -0.000294  -0.000301   0.000007   0.066933
     3  Cl   0.000014   0.008302  -0.000002   0.000155  -0.000001   0.000005
     4  O    0.000038  -0.000005   0.008075  -0.000002   0.000418  -0.000068
     5  S   -0.001194  -0.000001   0.000457  -0.000000   0.000003  -0.000038
     6  C    0.004717  -0.000000  -0.001267   0.000001   0.000001   0.000188
     7  C   -0.000136   0.000000   0.000251   0.000000  -0.000003   0.000151
     8  H   -0.001120  -0.000000   0.000560   0.000000   0.000191  -0.000016
     9  H    0.000010   0.000000  -0.000004   0.000000  -0.000001   0.000012
    10  H   -0.000003   0.000000   0.000053   0.000000   0.000004  -0.000003
    11  H   -0.000003   0.000000  -0.000017   0.000000  -0.000000  -0.000001
    12  H   -0.007032   0.000006   0.000179  -0.000004   0.000014  -0.000398
    13  H    0.000166  -0.000000  -0.000072   0.000000   0.000012  -0.000646
    14  O   -0.000030   0.000000  -0.000108  -0.000001  -0.000001  -0.000048
    15  S   -0.000217  -0.000043   0.001043  -0.000004   0.000038   0.000064
    16  C   -0.000067  -0.000042   0.000016   0.000002   0.000006   0.000018
    17  C   -0.000000  -0.000000   0.000014  -0.000000   0.000000   0.000000
    18  H    0.000329   0.000195  -0.000031  -0.000004  -0.000025  -0.000059
    19  H   -0.000001   0.000000  -0.000002   0.000000  -0.000000   0.000000
    20  H   -0.000000   0.000000   0.000007  -0.000000  -0.000000  -0.000000
    21  H   -0.000000   0.000000   0.000004   0.000000  -0.000000   0.000000
    22  H   -0.000001  -0.000002   0.000004  -0.000000   0.000000   0.000000
    23  H   -0.000000  -0.000000   0.000001   0.000000   0.000000   0.000000
    24  O    0.000002   0.000000  -0.000001   0.000000   0.000000   0.000001
    25  S    0.000001  -0.000001  -0.000000  -0.000000  -0.000000   0.000008
    26  C   -0.000000  -0.000000   0.000000  -0.000000   0.000000   0.000001
    27  C   -0.000012   0.000015  -0.000000   0.000001   0.000000   0.000023
    28  H   -0.000000  -0.000000   0.000000  -0.000000  -0.000000  -0.000000
    29  H    0.000000  -0.000044  -0.000000  -0.000001   0.000000   0.000080
    30  H   -0.000000  -0.000000   0.000000  -0.000000  -0.000000  -0.000000
    31  H    0.000000  -0.000000  -0.000000   0.000000   0.000000  -0.000002
    32  H   -0.000000  -0.000000  -0.000000   0.000000   0.000000  -0.000002
    33  H    0.000096   0.000000  -0.000000   0.000000  -0.000000   0.000111
    34  O   -0.033623   0.001910   0.000892   0.002729   0.002765   0.000482
    35  S    0.271736  -0.021393  -0.018917  -0.013166  -0.013696  -0.025567
    36  C   -0.039259   0.364919   0.004180   0.364979   0.000316   0.297714
    37  C    5.084169   0.004187   0.377708   0.000984   0.367878  -0.010003
    38  H    0.004187   0.561796  -0.000108  -0.016390  -0.000530  -0.029913
    39  H    0.377708  -0.000108   0.550579  -0.000275  -0.020518   0.000346
    40  H    0.000984  -0.016390  -0.000275   0.555024  -0.001062  -0.024661
    41  H    0.367878  -0.000530  -0.020518  -0.001062   0.541292   0.000923
    42  H   -0.010003  -0.029913   0.000346  -0.024661   0.000923   0.649138
    43  H    0.298241  -0.000347  -0.034929  -0.000060  -0.016286   0.002724
              43
     1  Pb  -0.015982
     2  Cl   0.077816
     3  Cl  -0.000185
     4  O    0.002303
     5  S    0.000597
     6  C   -0.011983
     7  C   -0.000000
     8  H    0.000950
     9  H   -0.000101
    10  H    0.000034
    11  H    0.000044
    12  H    0.003720
    13  H    0.000430
    14  O   -0.000057
    15  S   -0.000035
    16  C   -0.000010
    17  C   -0.000004
    18  H   -0.000018
    19  H   -0.000001
    20  H    0.000001
    21  H   -0.000000
    22  H    0.000001
    23  H    0.000000
    24  O    0.000018
    25  S   -0.000008
    26  C    0.000002
    27  C    0.000098
    28  H   -0.000000
    29  H    0.000012
    30  H   -0.000000
    31  H    0.000000
    32  H    0.000001
    33  H   -0.000422
    34  O    0.002142
    35  S   -0.029976
    36  C   -0.009247
    37  C    0.298241
    38  H   -0.000347
    39  H   -0.034929
    40  H   -0.000060
    41  H   -0.016286
    42  H    0.002724
    43  H    0.667874
 Mulliken charges:
               1
     1  Pb   1.128267
     2  Cl  -0.592787
     3  Cl  -0.666890
     4  O   -0.663606
     5  S    0.557619
     6  C   -0.293799
     7  C   -0.328505
     8  H    0.132582
     9  H    0.135575
    10  H    0.140503
    11  H    0.140384
    12  H    0.105622
    13  H    0.084050
    14  O   -0.693298
    15  S    0.590369
    16  C   -0.276091
    17  C   -0.274411
    18  H    0.134273
    19  H    0.131556
    20  H    0.126025
    21  H    0.125602
    22  H    0.120806
    23  H    0.121180
    24  O   -0.665077
    25  S    0.556792
    26  C   -0.301858
    27  C   -0.307473
    28  H    0.136367
    29  H    0.088659
    30  H    0.142237
    31  H    0.140268
    32  H    0.131887
    33  H    0.087667
    34  O   -0.677350
    35  S    0.561285
    36  C   -0.268596
    37  C   -0.273402
    38  H    0.122853
    39  H    0.129392
    40  H    0.131228
    41  H    0.139142
    42  H    0.078308
    43  H    0.062643
 Sum of Mulliken charges =  -0.00000
 Mulliken charges with hydrogens summed into heavy atoms:
               1
     1  Pb   1.128267
     2  Cl  -0.592787
     3  Cl  -0.666890
     4  O   -0.663606
     5  S    0.557619
     6  C    0.084908
     7  C    0.031505
    14  O   -0.693298
    15  S    0.590369
    16  C    0.105014
    17  C    0.103927
    24  O   -0.665077
    25  S    0.556792
    26  C    0.108635
    27  C    0.009121
    34  O   -0.677350
    35  S    0.561285
    36  C    0.063792
    37  C    0.057776
 Electronic spatial extent (au):  <R**2>=           9068.4037
 Charge=              0.0000 electrons
 Dipole moment (field-independent basis, Debye):
    X=             -3.5673    Y=              7.7324    Z=             12.0656  Tot=             14.7680
 Quadrupole moment (field-independent basis, Debye-Ang):
   XX=           -101.3233   YY=           -166.3968   ZZ=           -162.5100
   XY=             -1.3693   XZ=              7.0237   YZ=             -8.9531
 Traceless Quadrupole moment (field-independent basis, Debye-Ang):
   XX=             42.0868   YY=            -22.9868   ZZ=            -19.1000
   XY=             -1.3693   XZ=              7.0237   YZ=             -8.9531
 Octapole moment (field-independent basis, Debye-Ang**2):
  XXX=             96.1465  YYY=             34.6581  ZZZ=             41.7003  XYY=            -69.5451
  XXY=            -58.7295  XXZ=             28.2083  XZZ=            -55.8482  YZZ=             22.2719
  YYZ=             87.4875  XYZ=             81.0329
 Hexadecapole moment (field-independent basis, Debye-Ang**3):
 XXXX=          -4516.5908 YYYY=          -3407.8258 ZZZZ=          -3290.5008 XXXY=              0.8360
 XXXZ=            -89.6800 YYYX=             -1.2034 YYYZ=             44.6377 ZZZX=             54.7412
 ZZZY=           -172.2342 XXYY=          -1392.6265 XXZZ=          -1282.5656 YYZZ=          -1144.0881
 XXYZ=            -74.4896 YYXZ=             49.2154 ZZXY=             34.3016
 N-N= 2.147359799160D+03 E-N=-9.595268220014D+03  KE= 2.215540855910D+03
 Unable to Open any file for archive entry.
 1\1\GINC-MPCL071\SP\RCAM-B3LYP TD-FC\Gen\C8H24Cl2O4Pb1S4\EDBA4025\11-N
 ov-2020\0\\# cam-b3lyp/gen pseudo=read TD=NStates=10 Geom=Check Guess=
 Read empiricaldispersion=gd3bj SCRF=(Solvent=DMSO)\\PbCl2_dmso\\0,1\Pb
 ,0.121241334,-0.3294783601,-0.2899184768\Cl,1.2552919204,2.1632417323,
 -1.5597853593\Cl,0.2688095996,-2.1670213311,-2.4468290053\O,-0.6204727
 476,1.1632027375,1.6406119415\S,0.2560375449,2.1533745048,2.5022794698
 \C,0.1541272374,3.7773528643,1.6648628631\C,1.9979758862,1.794187019,2
 .0758713347\H,-0.8952662641,4.113984044,1.7478846087\H,2.1677193875,0.
 7264564221,2.3080293843\H,0.8232262068,4.4775924964,2.2013576559\H,2.6
 465628578,2.4488662101,2.6888940037\H,0.4610780584,3.6383560995,0.6089
 057326\H,2.1266921247,1.9756703403,0.9895574345\O,-1.0888263309,-1.847
 3206051,1.1121648101\S,-2.4768224176,-1.3478854411,1.7060271039\C,-3.7
 094973988,-2.3504100019,0.8147895633\C,-2.5313070236,-2.199353835,3.31
 51127286\H,-3.6884141809,-1.9563254941,-0.2173301577\H,-1.7555357254,-
 1.7232036383,3.9418665864\H,-4.7029698388,-2.1965477385,1.2780133989\H
 ,-3.5316482996,-2.0527914796,3.7651780502\H,-3.3977966356,-3.410933089
 1,0.8535844156\H,-2.3077307585,-3.2707557891,3.1559757382\O,2.25590360
 31,-1.2407344642,0.8672193569\S,3.6576680349,-1.5212380257,0.197636381
 2\C,4.7938966978,-0.2488683558,0.8630345331\C,3.5578855379,-0.87631942
 85,-1.5102631934\H,4.8601806967,-0.4216182551,1.9526468389\H,2.8165352
 881,-1.5090161423,-2.0389606739\H,5.784643446,-0.3942109336,0.39136939
 85\H,4.5618709901,-0.965645057,-1.9676489808\H,4.3879488658,0.75576483
 55,0.6420060096\H,3.2061863647,0.1758971326,-1.4787884517\O,-2.2276714
 672,-0.0709938764,-0.9290354798\S,-2.9152960601,1.1340008532,-1.696513
 6588\C,-1.9681786458,1.3070601372,-3.2475132724\C,-2.331681838,2.64648
 63829,-0.8609299614\H,-2.1024990887,0.3569593793,-3.7957825645\H,-2.64
 53353672,2.5487947971,0.1936775912\H,-2.3975439017,2.1516873972,-3.819
 6556578\H,-2.8204014729,3.5136680952,-1.3448366397\H,-0.9031625148,1.4
 833035187,-2.991308959\H,-1.2271037049,2.6886943428,-0.9454364411\\Ver
 sion=ES64L-G16RevC.01\State=1-A\HF=-2246.4602661\RMSD=8.866e-09\PG=C01
  [X(C8H24Cl2O4Pb1S4)]\\@
 The archive entry for this job was punched.


 Once you get people laughing, they're
 listening and you can tell them almost anything.
                                 -- Herb Gardner
 Job cpu time:       0 days  9 hours 48 minutes  9.4 seconds.
 Elapsed time:       0 days  1 hours 57 minutes 39.4 seconds.
 File lengths (MBytes):  RWF=   3579 Int=      0 D2E=      0 Chk=    536 Scr=      1
 Normal termination of Gaussian 16 at Wed Nov 11 20:55:13 2020.
