 Entering Gaussian System, Link 0=g16
 Input=02-PbCl2_gbl_22800290.com
 Output=02-PbCl2_gbl_22800290.log
 Initial command:
 /cm/shared/uniol/software/gaussian/g16.c01/g16/l1.exe "/scratch/22800290_edba4025/Gau-22433.inp" -scrdir="/scratch/22800290_edba4025/"
 Entering Link 1 = /cm/shared/uniol/software/gaussian/g16.c01/g16/l1.exe PID=     22434.
  
 Copyright (c) 1988-2019, Gaussian, Inc.  All Rights Reserved.
  
 This is part of the Gaussian(R) 16 program.  It is based on
 the Gaussian(R) 09 system (copyright 2009, Gaussian, Inc.),
 the Gaussian(R) 03 system (copyright 2003, Gaussian, Inc.),
 the Gaussian(R) 98 system (copyright 1998, Gaussian, Inc.),
 the Gaussian(R) 94 system (copyright 1995, Gaussian, Inc.),
 the Gaussian 92(TM) system (copyright 1992, Gaussian, Inc.),
 the Gaussian 90(TM) system (copyright 1990, Gaussian, Inc.),
 the Gaussian 88(TM) system (copyright 1988, Gaussian, Inc.),
 the Gaussian 86(TM) system (copyright 1986, Carnegie Mellon
 University), and the Gaussian 82(TM) system (copyright 1983,
 Carnegie Mellon University). Gaussian is a federally registered
 trademark of Gaussian, Inc.
  
 This software contains proprietary and confidential information,
 including trade secrets, belonging to Gaussian, Inc.
  
 This software is provided under written license and may be
 used, copied, transmitted, or stored only in accord with that
 written license.
  
 The following legend is applicable only to US Government
 contracts under FAR:
  
                    RESTRICTED RIGHTS LEGEND
  
 Use, reproduction and disclosure by the US Government is
 subject to restrictions as set forth in subparagraphs (a)
 and (c) of the Commercial Computer Software - Restricted
 Rights clause in FAR 52.227-19.
  
 Gaussian, Inc.
 340 Quinnipiac St., Bldg. 40, Wallingford CT 06492
  
  
 ---------------------------------------------------------------
 Warning -- This program may not be used in any manner that
 competes with the business of Gaussian, Inc. or will provide
 assistance to any competitor of Gaussian, Inc.  The licensee
 of this program is prohibited from giving any competitor of
 Gaussian, Inc. access to this program.  By using this program,
 the user acknowledges that Gaussian, Inc. is engaged in the
 business of creating and licensing software in the field of
 computational chemistry and represents and warrants to the
 licensee that it is not a competitor of Gaussian, Inc. and that
 it will not use this program in any manner prohibited above.
 ---------------------------------------------------------------
  

 Cite this work as:
 Gaussian 16, Revision C.01,
 M. J. Frisch, G. W. Trucks, H. B. Schlegel, G. E. Scuseria, 
 M. A. Robb, J. R. Cheeseman, G. Scalmani, V. Barone, 
 G. A. Petersson, H. Nakatsuji, X. Li, M. Caricato, A. V. Marenich, 
 J. Bloino, B. G. Janesko, R. Gomperts, B. Mennucci, H. P. Hratchian, 
 J. V. Ortiz, A. F. Izmaylov, J. L. Sonnenberg, D. Williams-Young, 
 F. Ding, F. Lipparini, F. Egidi, J. Goings, B. Peng, A. Petrone, 
 T. Henderson, D. Ranasinghe, V. G. Zakrzewski, J. Gao, N. Rega, 
 G. Zheng, W. Liang, M. Hada, M. Ehara, K. Toyota, R. Fukuda, 
 J. Hasegawa, M. Ishida, T. Nakajima, Y. Honda, O. Kitao, H. Nakai, 
 T. Vreven, K. Throssell, J. A. Montgomery, Jr., J. E. Peralta, 
 F. Ogliaro, M. J. Bearpark, J. J. Heyd, E. N. Brothers, K. N. Kudin, 
 V. N. Staroverov, T. A. Keith, R. Kobayashi, J. Normand, 
 K. Raghavachari, A. P. Rendell, J. C. Burant, S. S. Iyengar, 
 J. Tomasi, M. Cossi, J. M. Millam, M. Klene, C. Adamo, R. Cammi, 
 J. W. Ochterski, R. L. Martin, K. Morokuma, O. Farkas, 
 J. B. Foresman, and D. J. Fox, Gaussian, Inc., Wallingford CT, 2019.
 
 ******************************************
 Gaussian 16:  ES64L-G16RevC.01  3-Jul-2019
                11-Nov-2020 
 ******************************************
 %oldChk=01-PbCl2_gbl
 %chk=02-PbCl2_gbl
 %mem=16GB
 %NProcShared=5
 Will use up to    5 processors via shared memory.
 Copying data from "01-PbCl2_gbl.chk" to current chk file "02-PbCl2_gbl.chk"
 IOpt=  2 FromEx=T IUOpen= 4 IOptOp= 5 NList=   0 IFRang= 0 IUIn= 4 IUOut= 2.
 ----------------------------------------------------------------------
 # cam-b3lyp/gen pseudo=read TD=NStates=10 Geom=Check Guess=Read empiri
 caldispersion=gd3bj SCRF=(read)
 ----------------------------------------------------------------------
 1/29=2,38=1,40=2,172=1/1;
 2/12=2,40=1/2;
 3/5=7,11=9,14=-4,16=1,17=8,25=1,30=1,70=2203,74=-40,116=-2,124=41/1,2,3,8;
 4/5=1/1;
 5/5=2,38=6/2;
 8/6=1,10=1,108=10/1;
 9/41=10,42=1,70=2/14;
 6/7=2,8=2,9=2,10=2/1;
 99/5=1,9=1/99;
 ---------
 PbCl2_gbl
 ---------
 Structure from the checkpoint file:  "02-PbCl2_gbl.chk"
 Charge =  0 Multiplicity = 1
 Redundant internal coordinates found in file.  (old form).
 Pb,0,-0.0092048458,-0.6280966358,0.148445636
 Cl,0,1.4504992262,1.1312368426,1.6631927179
 Cl,0,-1.5411676953,-1.3628963878,2.2349589586
 O,0,1.3789514811,0.6152793377,-1.9458594412
 C,0,1.8585109008,1.7337413368,-1.7636287641
 C,0,1.1579350909,3.036882459,-1.4446052288
 O,0,3.2015589487,1.9206244744,-1.8100739529
 C,0,2.2210812851,4.0897935753,-1.7678789555
 C,0,3.5133505071,3.3154318323,-1.4887731903
 H,0,4.3750746496,3.6085670965,-2.1143702599
 H,0,3.802733952,3.3477395249,-0.4182434273
 H,0,2.1450040094,5.0049086521,-1.1529752749
 H,0,2.1702854624,4.3796236543,-2.8362589999
 H,0,0.9384707412,2.9932035984,-0.3552202286
 H,0,0.1981613335,3.1215780865,-1.9828453876
 O,0,-1.7675689521,-2.1054338073,-1.3827764182
 C,0,-2.9943146138,-2.0683124169,-1.297135463
 C,0,-3.8775233382,-1.0108419397,-0.6702416717
 O,0,-3.7442002512,-3.0815938986,-1.7948241079
 C,0,-5.2670598343,-1.3364889565,-1.2249762053
 C,0,-5.1582098864,-2.8408223748,-1.4992777466
 H,0,-5.7364159266,-3.1930698435,-2.3721053261
 H,0,-5.4186891765,-3.4558604858,-0.6134434373
 H,0,-6.092315743,-1.1019309837,-0.528502729
 H,0,-5.4424175081,-0.7872888359,-2.1710488214
 H,0,-3.7989289058,-1.1446190686,0.4311869764
 H,0,-3.4903516665,-0.0027297561,-0.9031056006
 O,0,-1.5275433519,1.3839418347,-0.3580891139
 C,0,-1.8698571709,2.2939480355,0.4088477698
 C,0,-1.929007731,2.3076911474,1.9147088783
 O,0,-2.2403197574,3.4832877278,-0.1028825458
 C,0,-2.8003814981,3.5310633887,2.2148474766
 C,0,-2.540322897,4.4165269975,0.9919607255
 H,0,-3.4020830344,5.0251702151,0.6662412328
 H,0,-1.6508559139,5.0674397034,1.1132223
 H,0,-2.5374969558,4.0428693658,3.1580218277
 H,0,-3.869227927,3.2430151445,2.2591296935
 H,0,-0.8775973351,2.4178052697,2.2637085676
 H,0,-2.2882363363,1.3345903372,2.298017441
 O,0,1.8050871962,-2.3794796737,0.8401682356
 C,0,3.0048413262,-2.2310653938,0.5857092539
 C,0,3.6953839857,-1.1173957908,-0.1678194981
 O,0,3.8982598999,-3.142778125,1.0227248177
 C,0,5.0747502074,-1.7077665345,-0.4745212208
 C,0,5.2553094675,-2.7117076676,0.6684519841
 H,0,5.8215220033,-3.6214633895,0.4012936343
 H,0,5.6990325581,-2.2534443406,1.5757263834
 H,0,5.8842321714,-0.956134951,-0.4981952204
 H,0,5.0593029242,-2.23552883,-1.448430381
 H,0,3.73309677,-0.2430602453,0.5183819937
 H,0,3.1032521543,-0.799309305,-1.0464578866
 Recover connectivity data from disk.
                           ----------------------------
                           !    Current Parameters    !
                           ! (Angstroms and Degrees)  !
 --------------------------                            --------------------------
 ! Name  Definition              Value                                          !
 --------------------------------------------------------------------------------
 ! R1    R(1,2)                  2.7423                                         !
 ! R2    R(1,3)                  2.6908                                         !
 ! R3    R(1,28)                 2.571                                          !
 ! R4    R(1,40)                 2.6149                                         !
 ! R5    R(4,5)                  1.2305                                         !
 ! R6    R(4,51)                 2.4048                                         !
 ! R7    R(5,6)                  1.5135                                         !
 ! R8    R(5,7)                  1.3568                                         !
 ! R9    R(6,8)                  1.5308                                         !
 ! R10   R(6,14)                 1.1121                                         !
 ! R11   R(6,15)                 1.1036                                         !
 ! R12   R(7,9)                  1.4649                                         !
 ! R13   R(8,9)                  1.5322                                         !
 ! R14   R(8,12)                 1.1051                                         !
 ! R15   R(8,13)                 1.1082                                         !
 ! R16   R(9,10)                 1.1045                                         !
 ! R17   R(9,11)                 1.1094                                         !
 ! R18   R(16,17)                1.2303                                         !
 ! R19   R(17,18)                1.5137                                         !
 ! R20   R(17,19)                1.3553                                         !
 ! R21   R(18,20)                1.5312                                         !
 ! R22   R(18,26)                1.1123                                         !
 ! R23   R(18,27)                1.1047                                         !
 ! R24   R(19,21)                1.4645                                         !
 ! R25   R(20,21)                1.533                                          !
 ! R26   R(20,24)                1.1051                                         !
 ! R27   R(20,25)                1.1079                                         !
 ! R28   R(21,22)                1.1046                                         !
 ! R29   R(21,23)                1.1094                                         !
 ! R30   R(27,28)                2.4642                                         !
 ! R31   R(28,29)                1.2383                                         !
 ! R32   R(29,30)                1.5071                                         !
 ! R33   R(29,31)                1.3467                                         !
 ! R34   R(30,32)                1.5317                                         !
 ! R35   R(30,38)                1.1133                                         !
 ! R36   R(30,39)                1.1058                                         !
 ! R37   R(31,33)                1.4696                                         !
 ! R38   R(32,33)                1.532                                          !
 ! R39   R(32,36)                1.1048                                         !
 ! R40   R(32,37)                1.1079                                         !
 ! R41   R(33,34)                1.1042                                         !
 ! R42   R(33,35)                1.1088                                         !
 ! R43   R(40,41)                1.2354                                         !
 ! R44   R(41,42)                1.5116                                         !
 ! R45   R(41,43)                1.3492                                         !
 ! R46   R(42,44)                1.5314                                         !
 ! R47   R(42,50)                1.1121                                         !
 ! R48   R(42,51)                1.1063                                         !
 ! R49   R(43,45)                1.4673                                         !
 ! R50   R(44,45)                1.532                                          !
 ! R51   R(44,48)                1.1049                                         !
 ! R52   R(44,49)                1.1078                                         !
 ! R53   R(45,46)                1.1044                                         !
 ! R54   R(45,47)                1.1091                                         !
 ! A1    A(2,1,3)               92.8619                                         !
 ! A2    A(2,1,28)              85.475                                          !
 ! A3    A(2,1,40)              85.0813                                         !
 ! A4    A(3,1,28)              91.7337                                         !
 ! A5    A(3,1,40)              90.4008                                         !
 ! A6    A(5,4,51)             101.5277                                         !
 ! A7    A(4,5,6)              129.3029                                         !
 ! A8    A(4,5,7)              120.3917                                         !
 ! A9    A(6,5,7)              110.2925                                         !
 ! A10   A(5,6,8)              103.0748                                         !
 ! A11   A(5,6,14)             105.3074                                         !
 ! A12   A(5,6,15)             111.4576                                         !
 ! A13   A(8,6,14)             111.7724                                         !
 ! A14   A(8,6,15)             116.6273                                         !
 ! A15   A(14,6,15)            108.0062                                         !
 ! A16   A(5,7,9)              109.5317                                         !
 ! A17   A(6,8,9)              101.5175                                         !
 ! A18   A(6,8,12)             113.8432                                         !
 ! A19   A(6,8,13)             110.5884                                         !
 ! A20   A(9,8,12)             112.0372                                         !
 ! A21   A(9,8,13)             110.2717                                         !
 ! A22   A(12,8,13)            108.4638                                         !
 ! A23   A(7,9,8)              105.174                                          !
 ! A24   A(7,9,10)             107.1296                                         !
 ! A25   A(7,9,11)             107.1509                                         !
 ! A26   A(8,9,10)             114.881                                          !
 ! A27   A(8,9,11)             112.3996                                         !
 ! A28   A(10,9,11)            109.5921                                         !
 ! A29   A(16,17,18)           129.1758                                         !
 ! A30   A(16,17,19)           120.2381                                         !
 ! A31   A(18,17,19)           110.5825                                         !
 ! A32   A(17,18,20)           103.3488                                         !
 ! A33   A(17,18,26)           106.5498                                         !
 ! A34   A(17,18,27)           110.2255                                         !
 ! A35   A(20,18,26)           113.4087                                         !
 ! A36   A(20,18,27)           115.8331                                         !
 ! A37   A(26,18,27)           107.0806                                         !
 ! A38   A(17,19,21)           109.7069                                         !
 ! A39   A(18,20,21)           102.0687                                         !
 ! A40   A(18,20,24)           113.8429                                         !
 ! A41   A(18,20,25)           110.3394                                         !
 ! A42   A(21,20,24)           111.968                                          !
 ! A43   A(21,20,25)           110.1749                                         !
 ! A44   A(24,20,25)           108.3476                                         !
 ! A45   A(19,21,20)           105.4262                                         !
 ! A46   A(19,21,22)           107.068                                          !
 ! A47   A(19,21,23)           107.2588                                         !
 ! A48   A(20,21,22)           114.6536                                         !
 ! A49   A(20,21,23)           112.6106                                         !
 ! A50   A(22,21,23)           109.3433                                         !
 ! A51   A(18,27,28)           138.2483                                         !
 ! A52   A(1,28,27)             94.2202                                         !
 ! A53   A(1,28,29)            128.0476                                         !
 ! A54   A(27,28,29)           109.2878                                         !
 ! A55   A(28,29,30)           129.522                                          !
 ! A56   A(28,29,31)           119.3204                                         !
 ! A57   A(30,29,31)           111.1509                                         !
 ! A58   A(29,30,32)           103.0269                                         !
 ! A59   A(29,30,38)           106.0853                                         !
 ! A60   A(29,30,39)           110.5524                                         !
 ! A61   A(32,30,38)           113.3819                                         !
 ! A62   A(32,30,39)           116.7509                                         !
 ! A63   A(38,30,39)           106.5689                                         !
 ! A64   A(29,31,33)           109.5056                                         !
 ! A65   A(30,32,33)           102.0431                                         !
 ! A66   A(30,32,36)           113.6984                                         !
 ! A67   A(30,32,37)           110.4281                                         !
 ! A68   A(33,32,36)           111.9188                                         !
 ! A69   A(33,32,37)           110.2396                                         !
 ! A70   A(36,32,37)           108.4143                                         !
 ! A71   A(31,33,32)           105.2063                                         !
 ! A72   A(31,33,34)           106.8345                                         !
 ! A73   A(31,33,35)           106.8879                                         !
 ! A74   A(32,33,34)           114.9341                                         !
 ! A75   A(32,33,35)           112.8393                                         !
 ! A76   A(34,33,35)           109.5564                                         !
 ! A77   A(1,40,41)            122.607                                          !
 ! A78   A(40,41,42)           129.4083                                         !
 ! A79   A(40,41,43)           119.6815                                         !
 ! A80   A(42,41,43)           110.9045                                         !
 ! A81   A(41,42,44)           103.1373                                         !
 ! A82   A(41,42,50)           106.6867                                         !
 ! A83   A(41,42,51)           111.2999                                         !
 ! A84   A(44,42,50)           113.3356                                         !
 ! A85   A(44,42,51)           115.7148                                         !
 ! A86   A(50,42,51)           106.3896                                         !
 ! A87   A(41,43,45)           109.615                                          !
 ! A88   A(42,44,45)           102.0856                                         !
 ! A89   A(42,44,48)           113.6992                                         !
 ! A90   A(42,44,49)           110.3135                                         !
 ! A91   A(45,44,48)           112.0519                                         !
 ! A92   A(45,44,49)           110.2029                                         !
 ! A93   A(48,44,49)           108.3887                                         !
 ! A94   A(43,45,44)           105.2876                                         !
 ! A95   A(43,45,46)           106.8925                                         !
 ! A96   A(43,45,47)           107.0918                                         !
 ! A97   A(44,45,46)           114.8215                                         !
 ! A98   A(44,45,47)           112.7499                                         !
 ! A99   A(46,45,47)           109.4602                                         !
 ! A100  A(4,51,42)            148.2084                                         !
 ! A101  L(28,1,40,2,-1)       170.5563                                         !
 ! A102  L(28,1,40,2,-2)       181.6708                                         !
 ! D1    D(2,1,28,27)         -156.6777                                         !
 ! D2    D(2,1,28,29)          -38.1009                                         !
 ! D3    D(3,1,28,27)          -63.9429                                         !
 ! D4    D(3,1,28,29)           54.6339                                         !
 ! D5    D(2,1,40,41)          -58.8595                                         !
 ! D6    D(3,1,40,41)         -151.6975                                         !
 ! D7    D(51,4,5,6)          -146.5941                                         !
 ! D8    D(51,4,5,7)            31.9648                                         !
 ! D9    D(5,4,51,42)           62.9526                                         !
 ! D10   D(4,5,6,8)           -163.1206                                         !
 ! D11   D(4,5,6,14)            79.5976                                         !
 ! D12   D(4,5,6,15)           -37.2706                                         !
 ! D13   D(7,5,6,8)             18.2046                                         !
 ! D14   D(7,5,6,14)           -99.0771                                         !
 ! D15   D(7,5,6,15)           144.0546                                         !
 ! D16   D(4,5,7,9)           -176.8798                                         !
 ! D17   D(6,5,7,9)              1.9314                                         !
 ! D18   D(5,6,8,9)            -29.303                                          !
 ! D19   D(5,6,8,12)          -149.8806                                         !
 ! D20   D(5,6,8,13)            87.7145                                         !
 ! D21   D(14,6,8,9)            83.3162                                         !
 ! D22   D(14,6,8,12)          -37.2614                                         !
 ! D23   D(14,6,8,13)         -159.6663                                         !
 ! D24   D(15,6,8,9)          -151.7515                                         !
 ! D25   D(15,6,8,12)           87.6708                                         !
 ! D26   D(15,6,8,13)          -34.734                                          !
 ! D27   D(5,7,9,8)            -21.4572                                         !
 ! D28   D(5,7,9,10)          -144.1243                                         !
 ! D29   D(5,7,9,11)            98.338                                          !
 ! D30   D(6,8,9,7)             31.2302                                         !
 ! D31   D(6,8,9,10)           148.7579                                         !
 ! D32   D(6,8,9,11)           -85.0178                                         !
 ! D33   D(12,8,9,7)           153.0696                                         !
 ! D34   D(12,8,9,10)          -89.4027                                         !
 ! D35   D(12,8,9,11)           36.8216                                         !
 ! D36   D(13,8,9,7)           -86.0175                                         !
 ! D37   D(13,8,9,10)           31.5102                                         !
 ! D38   D(13,8,9,11)          157.7345                                         !
 ! D39   D(16,17,18,20)        164.656                                          !
 ! D40   D(16,17,18,26)        -75.5767                                         !
 ! D41   D(16,17,18,27)         40.2741                                         !
 ! D42   D(19,17,18,20)        -16.0585                                         !
 ! D43   D(19,17,18,26)        103.7088                                         !
 ! D44   D(19,17,18,27)       -140.4404                                         !
 ! D45   D(16,17,19,21)        176.6355                                         !
 ! D46   D(18,17,19,21)         -2.7234                                         !
 ! D47   D(17,18,20,21)         26.7916                                         !
 ! D48   D(17,18,20,24)        147.6375                                         !
 ! D49   D(17,18,20,25)        -90.2986                                         !
 ! D50   D(26,18,20,21)        -88.153                                          !
 ! D51   D(26,18,20,24)         32.6929                                         !
 ! D52   D(26,18,20,25)        154.7568                                         !
 ! D53   D(27,18,20,21)        147.4318                                         !
 ! D54   D(27,18,20,24)        -91.7223                                         !
 ! D55   D(27,18,20,25)         30.3416                                         !
 ! D56   D(17,18,27,28)        -67.6154                                         !
 ! D57   D(20,18,27,28)        175.5292                                         !
 ! D58   D(26,18,27,28)         47.9018                                         !
 ! D59   D(17,19,21,20)         20.5453                                         !
 ! D60   D(17,19,21,22)        143.0506                                         !
 ! D61   D(17,19,21,23)        -99.6777                                         !
 ! D62   D(18,20,21,19)        -29.0926                                         !
 ! D63   D(18,20,21,22)       -146.5869                                         !
 ! D64   D(18,20,21,23)         87.5435                                         !
 ! D65   D(24,20,21,19)       -151.2317                                         !
 ! D66   D(24,20,21,22)         91.274                                          !
 ! D67   D(24,20,21,23)        -34.5956                                         !
 ! D68   D(25,20,21,19)         88.116                                          !
 ! D69   D(25,20,21,22)        -29.3783                                         !
 ! D70   D(25,20,21,23)       -155.2479                                         !
 ! D71   D(18,27,28,1)          24.6466                                         !
 ! D72   D(18,27,28,29)       -108.2412                                         !
 ! D73   D(1,28,29,30)         -23.1015                                         !
 ! D74   D(1,28,29,31)         155.8738                                         !
 ! D75   D(27,28,29,30)         88.7924                                         !
 ! D76   D(27,28,29,31)        -92.2323                                         !
 ! D77   D(28,29,30,32)       -163.9198                                         !
 ! D78   D(28,29,30,38)         76.6967                                         !
 ! D79   D(28,29,30,39)        -38.4587                                         !
 ! D80   D(31,29,30,32)         17.0381                                         !
 ! D81   D(31,29,30,38)       -102.3454                                         !
 ! D82   D(31,29,30,39)        142.4992                                         !
 ! D83   D(28,29,31,33)       -177.3843                                         !
 ! D84   D(30,29,31,33)          1.7682                                         !
 ! D85   D(29,30,32,33)        -27.3927                                         !
 ! D86   D(29,30,32,36)       -148.089                                          !
 ! D87   D(29,30,32,37)         89.7966                                         !
 ! D88   D(38,30,32,33)         86.8035                                         !
 ! D89   D(38,30,32,36)        -33.8928                                         !
 ! D90   D(38,30,32,37)       -156.0072                                         !
 ! D91   D(39,30,32,33)       -148.7348                                         !
 ! D92   D(39,30,32,36)         90.5689                                         !
 ! D93   D(39,30,32,37)        -31.5455                                         !
 ! D94   D(29,31,33,32)        -20.0241                                         !
 ! D95   D(29,31,33,34)       -142.6176                                         !
 ! D96   D(29,31,33,35)        100.1666                                         !
 ! D97   D(30,32,33,31)         29.168                                          !
 ! D98   D(30,32,33,34)        146.3831                                         !
 ! D99   D(30,32,33,35)        -87.008                                          !
 ! D100  D(36,32,33,31)        151.0947                                         !
 ! D101  D(36,32,33,34)        -91.6902                                         !
 ! D102  D(36,32,33,35)         34.9187                                         !
 ! D103  D(37,32,33,31)        -88.1569                                         !
 ! D104  D(37,32,33,34)         29.0582                                         !
 ! D105  D(37,32,33,35)        155.6671                                         !
 ! D106  D(1,40,41,42)          -2.0018                                         !
 ! D107  D(1,40,41,43)         177.0376                                         !
 ! D108  D(40,41,42,44)       -164.5916                                         !
 ! D109  D(40,41,42,50)         75.7646                                         !
 ! D110  D(40,41,42,51)        -39.8961                                         !
 ! D111  D(43,41,42,44)         16.3018                                         !
 ! D112  D(43,41,42,50)       -103.342                                          !
 ! D113  D(43,41,42,51)        140.9973                                         !
 ! D114  D(40,41,43,45)       -176.6679                                         !
 ! D115  D(42,41,43,45)          2.5376                                         !
 ! D116  D(41,42,44,45)        -26.9958                                         !
 ! D117  D(41,42,44,48)       -147.8801                                         !
 ! D118  D(41,42,44,49)         90.1243                                         !
 ! D119  D(50,42,44,45)         87.9531                                         !
 ! D120  D(50,42,44,48)        -32.9311                                         !
 ! D121  D(50,42,44,49)       -154.9267                                         !
 ! D122  D(51,42,44,45)       -148.7593                                         !
 ! D123  D(51,42,44,48)         90.3565                                         !
 ! D124  D(51,42,44,49)        -31.6391                                         !
 ! D125  D(41,42,51,4)          88.0748                                         !
 ! D126  D(44,42,51,4)        -154.6332                                         !
 ! D127  D(50,42,51,4)         -27.7688                                         !
 ! D128  D(41,43,45,44)        -20.509                                          !
 ! D129  D(41,43,45,46)       -143.0446                                         !
 ! D130  D(41,43,45,47)         99.7205                                         !
 ! D131  D(42,44,45,43)         29.2032                                         !
 ! D132  D(42,44,45,46)        146.482                                          !
 ! D133  D(42,44,45,47)        -87.2206                                         !
 ! D134  D(48,44,45,43)        151.2238                                         !
 ! D135  D(48,44,45,46)        -91.4974                                         !
 ! D136  D(48,44,45,47)         34.8                                            !
 ! D137  D(49,44,45,43)        -87.9965                                         !
 ! D138  D(49,44,45,46)         29.2823                                         !
 ! D139  D(49,44,45,47)        155.5797                                         !
 --------------------------------------------------------------------------------
 Stoichiometry    C16H24Cl2O8Pb
 Framework group  C1[X(C16H24Cl2O8Pb)]
 Deg. of freedom   147
 Full point group                 C1      NOp   1
 Largest Abelian subgroup         C1      NOp   1
 Largest concise Abelian subgroup C1      NOp   1
                         Standard orientation:                         
 ---------------------------------------------------------------------
 Center     Atomic      Atomic             Coordinates (Angstroms)
 Number     Number       Type             X           Y           Z
 ---------------------------------------------------------------------
      1         82           0       -0.011131   -0.628633    0.146385
      2         17           0        1.448892    1.125776    1.666527
      3         17           0       -1.548661   -1.363445    2.228796
      4          8           0        1.383578    0.615038   -1.943385
      5          6           0        1.864903    1.732325   -1.758618
      6          6           0        1.166176    3.036351   -1.439155
      7          8           0        3.208395    1.916710   -1.802117
      8          6           0        2.231972    4.087685   -1.758818
      9          6           0        3.522202    3.310465   -1.478226
     10          1           0        4.385732    3.602836   -2.101686
     11          1           0        3.809505    3.340713   -0.407075
     12          1           0        2.156409    5.002077   -1.142776
     13          1           0        2.183865    4.379115   -2.826887
     14          1           0        0.944451    2.991557   -0.350273
     15          1           0        0.207644    3.123636   -1.979191
     16          8           0       -1.769242   -2.100453   -1.390430
     17          6           0       -2.996084   -2.061111   -1.307186
     18          6           0       -3.878527   -1.002840   -0.680565
     19          8           0       -3.746902   -3.072257   -1.807802
     20          6           0       -5.267570   -1.325053   -1.238533
     21          6           0       -5.161039   -2.829204   -1.514740
     22          1           0       -5.738169   -3.179117   -2.389218
     23          1           0       -5.424461   -3.444990   -0.630297
     24          1           0       -6.093768   -1.089901   -0.543379
     25          1           0       -5.439988   -0.774187   -2.184178
     26          1           0       -3.802390   -1.138318    0.420828
     27          1           0       -3.488970    0.004858   -0.911232
     28          8           0       -1.524616    1.387011   -0.360339
     29          6           0       -1.866727    2.296588    0.407197
     30          6           0       -1.928863    2.308324    1.912954
     31          8           0       -2.233898    3.487353   -0.103593
     32          6           0       -2.798502    3.532934    2.213079
     33          6           0       -2.534311    4.419620    0.991966
     34          1           0       -3.394256    5.030365    0.665385
     35          1           0       -1.643849    5.068662    1.115922
     36          1           0       -2.536529    4.042908    3.157498
     37          1           0       -3.867982    3.246864    2.254820
     38          1           0       -0.877945    2.415939    2.264208
     39          1           0       -2.290711    1.335372    2.294170
     40          8           0        1.798433   -2.384449    0.839257
     41          6           0        2.998974   -2.237967    0.587404
     42          6           0        3.693144   -1.124557   -0.163171
     43          8           0        3.889777   -3.151998    1.024915
     44          6           0        5.071993   -1.717128   -0.467951
     45          6           0        5.248352   -2.723020    0.673962
     46          1           0        5.813362   -3.633478    0.406651
     47          1           0        5.691132   -2.266883    1.582767
     48          1           0        5.882951   -0.967010   -0.488947
     49          1           0        5.057487   -2.243488   -1.442633
     50          1           0        3.731151   -0.251262    0.524338
     51          1           0        3.103377   -0.804104   -1.042540
 ---------------------------------------------------------------------
 Rotational constants (GHZ):           0.1471627           0.1075420           0.0795681
 General basis read from cards:  (5D, 7F)
 ======================================================================================================
                                       Pseudopotential Parameters
 ======================================================================================================
  Center     Atomic      Valence      Angular      Power
  Number     Number     Electrons     Momentum     of R      Exponent        Coefficient   SO-Coeffient
 ======================================================================================================
    1         82            4
                                      G and up 
                                                     0      376.5803786       -0.17896050    0.00000000
                                                     1       86.4840014      -54.39723370    0.00000000
                                                     2       26.6784276     -199.70617590    0.00000000
                                                     2        9.4261986      -79.12239410    0.00000000
                                                     2        2.7101719      -24.98690200    0.00000000
                                                     2        0.8792031       -4.43979390    0.00000000
                                      S - G
                                                     0      132.4248796        2.81153860    0.00000000
                                                     1       47.2376044       65.03672050    0.00000000
                                                     2       17.6312727      212.78685450    0.00000000
                                                     2        5.4744712       72.10531750    0.00000000
                                                     2        1.2634856       33.01409400    0.00000000
                                                     2        0.7651447       -5.77084610    0.00000000
                                      P - G
                                                     0       67.8966454        4.87549110    0.00000000
                                                     1       24.9898225       63.91481020    0.00000000
                                                     2       10.7052939      148.10643580    0.00000000
                                                     2        3.2792568       47.31063010    0.00000000
                                                     2        0.8452522       21.03067020    0.00000000
                                                     2        0.6416245       -7.09307720    0.00000000
                                      D - G
                                                     0       68.8336005        3.21613880    0.00000000
                                                     1       24.2815874       55.73860860    0.00000000
                                                     2        9.4532762      121.41683510    0.00000000
                                                     2        2.4788185       19.34560640    0.00000000
                                                     2        2.4789161       15.36751680    0.00000000
                                                     2        0.5551738        6.12987240    0.00000000
                                      F - G
                                                     0      128.1021322        4.13536820    0.00000000
                                                     1       54.8029154       67.51284460    0.00000000
                                                     2       24.5529308      258.73731070    0.00000000
                                                     2        8.1144792      113.24782640    0.00000000
                                                     2        1.6931290       34.16802010    0.00000000
                                                     2        0.7670500       -6.55319560    0.00000000
    2         17            7
                                      D and up 
                                                     1       94.8130000      -10.00000000    0.00000000
                                                     2      165.6440000       66.27291700    0.00000000
                                                     2       30.8317000      -28.96859500    0.00000000
                                                     2       10.5841000      -12.86633700    0.00000000
                                                     2        3.7704000       -1.71021700    0.00000000
                                      S - D
                                                     0      128.8391000        3.00000000    0.00000000
                                                     1      120.3786000       12.85285100    0.00000000
                                                     2       63.5622000      275.67239800    0.00000000
                                                     2       18.0695000      115.67771200    0.00000000
                                                     2        3.8142000       35.06060900    0.00000000
                                      P - D
                                                     0      216.5263000        5.00000000    0.00000000
                                                     1       46.5723000        7.47948600    0.00000000
                                                     2      147.4685000      613.03200000    0.00000000
                                                     2       48.9869000      280.80068500    0.00000000
                                                     2       13.2096000      107.87882400    0.00000000
                                                     2        3.1831000       15.34395600    0.00000000
    3         17            7
                                      D and up 
                                                     1       94.8130000      -10.00000000    0.00000000
                                                     2      165.6440000       66.27291700    0.00000000
                                                     2       30.8317000      -28.96859500    0.00000000
                                                     2       10.5841000      -12.86633700    0.00000000
                                                     2        3.7704000       -1.71021700    0.00000000
                                      S - D
                                                     0      128.8391000        3.00000000    0.00000000
                                                     1      120.3786000       12.85285100    0.00000000
                                                     2       63.5622000      275.67239800    0.00000000
                                                     2       18.0695000      115.67771200    0.00000000
                                                     2        3.8142000       35.06060900    0.00000000
                                      P - D
                                                     0      216.5263000        5.00000000    0.00000000
                                                     1       46.5723000        7.47948600    0.00000000
                                                     2      147.4685000      613.03200000    0.00000000
                                                     2       48.9869000      280.80068500    0.00000000
                                                     2       13.2096000      107.87882400    0.00000000
                                                     2        3.1831000       15.34395600    0.00000000
    4          8
                                   No pseudopotential on this center.
    5          6
                                   No pseudopotential on this center.
    6          6
                                   No pseudopotential on this center.
    7          8
                                   No pseudopotential on this center.
    8          6
                                   No pseudopotential on this center.
    9          6
                                   No pseudopotential on this center.
   10          1
                                   No pseudopotential on this center.
   11          1
                                   No pseudopotential on this center.
   12          1
                                   No pseudopotential on this center.
   13          1
                                   No pseudopotential on this center.
   14          1
                                   No pseudopotential on this center.
   15          1
                                   No pseudopotential on this center.
   16          8
                                   No pseudopotential on this center.
   17          6
                                   No pseudopotential on this center.
   18          6
                                   No pseudopotential on this center.
   19          8
                                   No pseudopotential on this center.
   20          6
                                   No pseudopotential on this center.
   21          6
                                   No pseudopotential on this center.
   22          1
                                   No pseudopotential on this center.
   23          1
                                   No pseudopotential on this center.
   24          1
                                   No pseudopotential on this center.
   25          1
                                   No pseudopotential on this center.
   26          1
                                   No pseudopotential on this center.
   27          1
                                   No pseudopotential on this center.
   28          8
                                   No pseudopotential on this center.
   29          6
                                   No pseudopotential on this center.
   30          6
                                   No pseudopotential on this center.
   31          8
                                   No pseudopotential on this center.
   32          6
                                   No pseudopotential on this center.
   33          6
                                   No pseudopotential on this center.
   34          1
                                   No pseudopotential on this center.
   35          1
                                   No pseudopotential on this center.
   36          1
                                   No pseudopotential on this center.
   37          1
                                   No pseudopotential on this center.
   38          1
                                   No pseudopotential on this center.
   39          1
                                   No pseudopotential on this center.
   40          8
                                   No pseudopotential on this center.
   41          6
                                   No pseudopotential on this center.
   42          6
                                   No pseudopotential on this center.
   43          8
                                   No pseudopotential on this center.
   44          6
                                   No pseudopotential on this center.
   45          6
                                   No pseudopotential on this center.
   46          1
                                   No pseudopotential on this center.
   47          1
                                   No pseudopotential on this center.
   48          1
                                   No pseudopotential on this center.
   49          1
                                   No pseudopotential on this center.
   50          1
                                   No pseudopotential on this center.
   51          1
                                   No pseudopotential on this center.
 ======================================================================================================
 There are  1224 symmetry adapted cartesian basis functions of A   symmetry.
 There are  1080 symmetry adapted basis functions of A   symmetry.
  1080 basis functions,  1692 primitive gaussians,  1224 cartesian basis functions
   101 alpha electrons      101 beta electrons
       nuclear repulsion energy      2411.1627628676 Hartrees.
 NAtoms=   51 NActive=   51 NUniq=   51 SFac= 1.00D+00 NAtFMM=   60 NAOKFM=F Big=F
 Integral buffers will be    131072 words long.
 Raffenetti 1 integral format.
 Two-electron integral symmetry is turned on.
 Nuclear repulsion after empirical dispersion term =     2411.1066066802 Hartrees.
 Using the following non-standard input for PCM:
 eps=41.78
 --- end of non-standard input.
 ------------------------------------------------------------------------------
 Polarizable Continuum Model (PCM)
 =================================
 Model                : PCM.
 Atomic radii         : UFF (Universal Force Field).
 Polarization charges : Total charges.
 Charge compensation  : None.
 Solution method      : On-the-fly selection.
 Cavity type          : Scaled VdW (van der Waals Surface) (Alpha=1.100).
 Cavity algorithm     : GePol (No added spheres)
                        Default sphere list used, NSphG=   51.
                        Lebedev-Laikov grids with approx.  5.0 points / Ang**2.
                        Smoothing algorithm: York/Karplus (Gamma=1.0000).
                        Polarization charges: spherical gaussians, with
                                              point-specific exponents (IZeta= 3).
                        Self-potential: point-specific (ISelfS= 7).
                        Self-field    : sphere-specific E.n sum rule (ISelfD= 2).
 Solvent              : Water, Eps=  41.780000 Eps(inf)=   1.777849
 ------------------------------------------------------------------------------
 One-electron integrals computed using PRISM.
   1 Symmetry operations used in ECPInt.
 ECPInt:  NShTT=   78606 NPrTT=  291717 LenC2=   57124 LenP2D=  132588.
 LDataN:  DoStor=T MaxTD1= 7 Len=  274
 NBasis=  1080 RedAO= T EigKep=  3.23D-04  NBF=  1080
 NBsUse=  1080 1.00D-06 EigRej= -1.00D+00 NBFU=  1080
 Defaulting to unpruned grid for atomic number  82.
 Initial guess from the checkpoint file:  "02-PbCl2_gbl.chk"
 B after Tr=    -0.000000    0.000000    0.000000
         Rot=    1.000000    0.000000   -0.000000    0.000000 Ang=   0.00 deg.
 Requested convergence on RMS density matrix=1.00D-08 within 128 cycles.
 Requested convergence on MAX density matrix=1.00D-06.
 Requested convergence on             energy=1.00D-06.
 No special actions if energy rises.
 Defaulting to unpruned grid for atomic number  82.
 Defaulting to unpruned grid for atomic number  82.
 Defaulting to unpruned grid for atomic number  82.
 Defaulting to unpruned grid for atomic number  82.
 Defaulting to unpruned grid for atomic number  82.
 Inv3:  Mode=1 IEnd=    48048012.
 Iteration    1 A*A^-1 deviation from unit magnitude is 3.11D-15 for   1145.
 Iteration    1 A*A^-1 deviation from orthogonality  is 2.66D-15 for   3029   1656.
 Iteration    1 A^-1*A deviation from unit magnitude is 3.11D-15 for   1145.
 Iteration    1 A^-1*A deviation from orthogonality  is 8.63D-15 for   3034   3020.
 Error on total polarization charges =  0.01638
 SCF Done:  E(RCAM-B3LYP) =  -1259.46838370     A.U. after   11 cycles
            NFock= 11  Conv=0.78D-08     -V/T= 2.0241
 DoSCS=F DFT=T ScalE2(SS,OS)=  1.000000  1.000000
 ExpMin= 5.98D-02 ExpMax= 1.53D+04 ExpMxC= 5.22D+02 IAcc=3 IRadAn=         5 AccDes= 0.00D+00
 HarFok:  IExCor=  205 AccDes= 0.00D+00 IRadAn=         5 IDoV=-2 UseB2=F ITyADJ=14
 ICtDFT= 12500011 ScaDFX=  1.000000  1.000000  1.000000  1.000000
 Defaulting to unpruned grid for atomic number  82.
 GSVD:  LWork=        -768 too small for GESVD, short by        3240 words or        3240 for optimal perf.
 Range of M.O.s used for correlation:    25  1080
 NBasis=  1080 NAE=   101 NBE=   101 NFC=    24 NFV=     0
 NROrb=   1056 NOA=    77 NOB=    77 NVA=   979 NVB=   979
 NEqPCM:  Using non-equilibrium solvation (IEInf=1, Eps=  41.7800, EpsInf=   1.7778)
 Inv3:  Mode=1 IEnd=    48048012.
 Iteration    1 A*A^-1 deviation from unit magnitude is 3.77D-15 for   1916.
 Iteration    1 A*A^-1 deviation from orthogonality  is 2.44D-15 for   2619    190.
 Iteration    1 A^-1*A deviation from unit magnitude is 3.55D-15 for   1819.
 Iteration    1 A^-1*A deviation from orthogonality  is 1.09D-14 for   3035   3020.
 Orbital symmetries:
       Occupied  (A) (A) (A) (A) (A) (A) (A) (A) (A) (A) (A) (A)
                 (A) (A) (A) (A) (A) (A) (A) (A) (A) (A) (A) (A)
                 (A) (A) (A) (A) (A) (A) (A) (A) (A) (A) (A) (A)
                 (A) (A) (A) (A) (A) (A) (A) (A) (A) (A) (A) (A)
                 (A) (A) (A) (A) (A) (A) (A) (A) (A) (A) (A) (A)
                 (A) (A) (A) (A) (A) (A) (A) (A) (A) (A) (A) (A)
                 (A) (A) (A) (A) (A) (A) (A) (A) (A) (A) (A) (A)
                 (A) (A) (A) (A) (A) (A) (A) (A) (A) (A) (A) (A)
                 (A) (A) (A) (A) (A)
       Virtual   (A) (A) (A) (A) (A) (A) (A) (A) (A) (A) (A) (A)
                 (A) (A) (A) (A) (A) (A) (A) (A) (A) (A) (A) (A)
                 (A) (A) (A) (A) (A) (A) (A) (A) (A) (A) (A) (A)
                 (A) (A) (A) (A) (A) (A) (A) (A) (A) (A) (A) (A)
                 (A) (A) (A) (A) (A) (A) (A) (A) (A) (A) (A) (A)
                 (A) (A) (A) (A) (A) (A) (A) (A) (A) (A) (A) (A)
                 (A) (A) (A) (A) (A) (A) (A) (A) (A) (A) (A) (A)
                 (A) (A) (A) (A) (A) (A) (A) (A) (A) (A) (A) (A)
                 (A) (A) (A) (A) (A) (A) (A) (A) (A) (A) (A) (A)
                 (A) (A) (A) (A) (A) (A) (A) (A) (A) (A) (A) (A)
                 (A) (A) (A) (A) (A) (A) (A) (A) (A) (A) (A) (A)
                 (A) (A) (A) (A) (A) (A) (A) (A) (A) (A) (A) (A)
                 (A) (A) (A) (A) (A) (A) (A) (A) (A) (A) (A) (A)
                 (A) (A) (A) (A) (A) (A) (A) (A) (A) (A) (A) (A)
                 (A) (A) (A) (A) (A) (A) (A) (A) (A) (A) (A) (A)
                 (A) (A) (A) (A) (A) (A) (A) (A) (A) (A) (A) (A)
                 (A) (A) (A) (A) (A) (A) (A) (A) (A) (A) (A) (A)
                 (A) (A) (A) (A) (A) (A) (A) (A) (A) (A) (A) (A)
                 (A) (A) (A) (A) (A) (A) (A) (A) (A) (A) (A) (A)
                 (A) (A) (A) (A) (A) (A) (A) (A) (A) (A) (A) (A)
                 (A) (A) (A) (A) (A) (A) (A) (A) (A) (A) (A) (A)
                 (A) (A) (A) (A) (A) (A) (A) (A) (A) (A) (A) (A)
                 (A) (A) (A) (A) (A) (A) (A) (A) (A) (A) (A) (A)
                 (A) (A) (A) (A) (A) (A) (A) (A) (A) (A) (A) (A)
                 (A) (A) (A) (A) (A) (A) (A) (A) (A) (A) (A) (A)
                 (A) (A) (A) (A) (A) (A) (A) (A) (A) (A) (A) (A)
                 (A) (A) (A) (A) (A) (A) (A) (A) (A) (A) (A) (A)
                 (A) (A) (A) (A) (A) (A) (A) (A) (A) (A) (A) (A)
                 (A) (A) (A) (A) (A) (A) (A) (A) (A) (A) (A) (A)
                 (A) (A) (A) (A) (A) (A) (A) (A) (A) (A) (A) (A)
                 (A) (A) (A) (A) (A) (A) (A) (A) (A) (A) (A) (A)
                 (A) (A) (A) (A) (A) (A) (A) (A) (A) (A) (A) (A)
                 (A) (A) (A) (A) (A) (A) (A) (A) (A) (A) (A) (A)
                 (A) (A) (A) (A) (A) (A) (A) (A) (A) (A) (A) (A)
                 (A) (A) (A) (A) (A) (A) (A) (A) (A) (A) (A) (A)
                 (A) (A) (A) (A) (A) (A) (A) (A) (A) (A) (A) (A)
                 (A) (A) (A) (A) (A) (A) (A) (A) (A) (A) (A) (A)
                 (A) (A) (A) (A) (A) (A) (A) (A) (A) (A) (A) (A)
                 (A) (A) (A) (A) (A) (A) (A) (A) (A) (A) (A) (A)
                 (A) (A) (A) (A) (A) (A) (A) (A) (A) (A) (A) (A)
                 (A) (A) (A) (A) (A) (A) (A) (A) (A) (A) (A) (A)
                 (A) (A) (A) (A) (A) (A) (A) (A) (A) (A) (A) (A)
                 (A) (A) (A) (A) (A) (A) (A) (A) (A) (A) (A) (A)
                 (A) (A) (A) (A) (A) (A) (A) (A) (A) (A) (A) (A)
                 (A) (A) (A) (A) (A) (A) (A) (A) (A) (A) (A) (A)
                 (A) (A) (A) (A) (A) (A) (A) (A) (A) (A) (A) (A)
                 (A) (A) (A) (A) (A) (A) (A) (A) (A) (A) (A) (A)
                 (A) (A) (A) (A) (A) (A) (A) (A) (A) (A) (A) (A)
                 (A) (A) (A) (A) (A) (A) (A) (A) (A) (A) (A) (A)
                 (A) (A) (A) (A) (A) (A) (A) (A) (A) (A) (A) (A)
                 (A) (A) (A) (A) (A) (A) (A) (A) (A) (A) (A) (A)
                 (A) (A) (A) (A) (A) (A) (A) (A) (A) (A) (A) (A)
                 (A) (A) (A) (A) (A) (A) (A) (A) (A) (A) (A) (A)
                 (A) (A) (A) (A) (A) (A) (A) (A) (A) (A) (A) (A)
                 (A) (A) (A) (A) (A) (A) (A) (A) (A) (A) (A) (A)
                 (A) (A) (A) (A) (A) (A) (A) (A) (A) (A) (A) (A)
                 (A) (A) (A) (A) (A) (A) (A) (A) (A) (A) (A) (A)
                 (A) (A) (A) (A) (A) (A) (A) (A) (A) (A) (A) (A)
                 (A) (A) (A) (A) (A) (A) (A) (A) (A) (A) (A) (A)
                 (A) (A) (A) (A) (A) (A) (A) (A) (A) (A) (A) (A)
                 (A) (A) (A) (A) (A) (A) (A) (A) (A) (A) (A) (A)
                 (A) (A) (A) (A) (A) (A) (A) (A) (A) (A) (A) (A)
                 (A) (A) (A) (A) (A) (A) (A) (A) (A) (A) (A) (A)
                 (A) (A) (A) (A) (A) (A) (A) (A) (A) (A) (A) (A)
                 (A) (A) (A) (A) (A) (A) (A) (A) (A) (A) (A) (A)
                 (A) (A) (A) (A) (A) (A) (A) (A) (A) (A) (A) (A)
                 (A) (A) (A) (A) (A) (A) (A) (A) (A) (A) (A) (A)
                 (A) (A) (A) (A) (A) (A) (A) (A) (A) (A) (A) (A)
                 (A) (A) (A) (A) (A) (A) (A) (A) (A) (A) (A) (A)
                 (A) (A) (A) (A) (A) (A) (A) (A) (A) (A) (A) (A)
                 (A) (A) (A) (A) (A) (A) (A) (A) (A) (A) (A) (A)
                 (A) (A) (A) (A) (A) (A) (A) (A) (A) (A) (A) (A)
                 (A) (A) (A) (A) (A) (A) (A) (A) (A) (A) (A) (A)
                 (A) (A) (A) (A) (A) (A) (A) (A) (A) (A) (A) (A)
                 (A) (A) (A) (A) (A) (A) (A) (A) (A) (A) (A) (A)
                 (A) (A) (A) (A) (A) (A) (A) (A) (A) (A) (A) (A)
                 (A) (A) (A) (A) (A) (A) (A) (A) (A) (A) (A) (A)
                 (A) (A) (A) (A) (A) (A) (A) (A) (A) (A) (A) (A)
                 (A) (A) (A) (A) (A) (A) (A) (A) (A) (A) (A) (A)
                 (A) (A) (A) (A) (A) (A) (A) (A) (A) (A) (A) (A)
                 (A) (A) (A) (A) (A) (A) (A) (A) (A) (A) (A) (A)
                 (A) (A) (A) (A) (A) (A) (A)
    40 initial guesses have been made.
 Convergence on wavefunction:    0.001000000000000
 Iteration     1 Dimension    40 NMult     0 NNew     40
 CISAX will form    40 AO SS matrices at one time.
 Defaulting to unpruned grid for atomic number  82.
 Defaulting to unpruned grid for atomic number  82.
 Defaulting to unpruned grid for atomic number  82.
 Defaulting to unpruned grid for atomic number  82.
 Defaulting to unpruned grid for atomic number  82.
 New state      6 was old state      7
 New state      7 was old state      6
 New state      8 was old state      9
 New state      9 was old state     10
 New state     10 was old state      8
 Iteration     2 Dimension    60 NMult    40 NNew     20
 New state      3 was old state     10
 New state      4 was old state      3
 New state      5 was old state      4
 New state      6 was old state      5
 New state      7 was old state      6
 New state      8 was old state      7
 New state      9 was old state      8
 New state     10 was old state      9
 Iteration     3 Dimension    80 NMult    60 NNew     20
 Iteration     4 Dimension   100 NMult    80 NNew     20
 Iteration     5 Dimension   120 NMult   100 NNew     20
 Iteration     6 Dimension   140 NMult   120 NNew     20
 Iteration     7 Dimension   158 NMult   140 NNew     18
 ***********************************************************************
 Excited states from <AA,BB:AA,BB> singles matrix:
 ***********************************************************************
 
 Ground to excited state transition densities written to RWF  633
 Ground to excited state transition electric dipole moments (Au):
       state          X           Y           Z        Dip. S.      Osc.
         1         0.3202      0.2287     -0.2254      0.2056      0.0291
         2         0.0332     -0.4717     -0.2347      0.2787      0.0395
         3        -0.0583     -0.0262      0.0687      0.0088      0.0013
         4        -0.0461      0.2404     -0.0659      0.0642      0.0093
         5         0.6615     -0.7275     -0.4340      1.1551      0.1762
         6         0.7419      0.6339     -0.5216      1.2244      0.1905
         7        -0.4138     -0.0412     -0.5581      0.4844      0.0778
         8        -0.5094     -0.4459     -0.0142      0.4586      0.0746
         9        -0.3063      0.1300     -0.1199      0.1251      0.0204
        10        -0.8201     -0.0449     -0.2171      0.7217      0.1183
 Ground to excited state transition velocity dipole moments (Au):
       state          X           Y           Z        Dip. S.      Osc.
         1        -0.0609     -0.0387      0.0365      0.0065      0.0205
         2        -0.0080      0.0779      0.0430      0.0080      0.0250
         3         0.0089      0.0079     -0.0025      0.0001      0.0005
         4         0.0141     -0.0458      0.0142      0.0025      0.0077
         5        -0.1391      0.1441      0.0852      0.0474      0.1380
         6        -0.1394     -0.1158      0.1017      0.0432      0.1233
         7         0.0691      0.0152      0.1176      0.0188      0.0521
         8         0.1047      0.1198     -0.0040      0.0253      0.0692
         9         0.0580     -0.0462     -0.0169      0.0058      0.0157
        10         0.1869      0.0047      0.0585      0.0384      0.1041
 Ground to excited state transition magnetic dipole moments (Au):
       state          X           Y           Z
         1        -0.2227      0.7468      0.0464
         2         0.1546     -0.0796     -0.1486
         3         1.3657      0.4547      0.1482
         4        -0.2931      0.8560      0.2661
         5         0.2186      0.3562     -0.3999
         6        -0.6932      0.1162     -0.6989
         7        -0.2381     -0.7886      0.7336
         8        -0.1915      0.0721      0.4300
         9         0.1101     -0.1901      0.0529
        10        -0.3526      0.1410      0.3687
 Ground to excited state transition velocity quadrupole moments (Au):
       state          XX          YY          ZZ          XY          XZ          YZ
         1         0.0240     -0.1809      0.0283     -0.0358      0.0354      0.1086
         2        -0.3136      0.0410      0.1185     -0.0454     -0.2173      0.0554
         3        -0.1003      0.0136     -0.1099      0.0114     -0.0148      0.0518
         4        -0.0240     -0.1360      0.0148      0.0410      0.0434     -0.0520
         5        -0.6230      0.0129      0.2979      0.1789     -0.0766      0.1525
         6        -0.0278     -0.3484      0.2776     -0.0686      0.0049      0.0227
         7        -0.2961     -0.0882      0.2290     -0.4364     -0.1543     -0.1319
         8        -0.3743      0.2623     -0.0445     -0.2197     -0.0873      0.0210
         9         0.3784      0.0403     -0.2298      0.1843      0.0262     -0.0962
        10         0.0768     -0.3895      0.1137     -0.6208      0.1570      0.0118
 <0|del|b> * <b|rxdel|0> + <0|del|b> * <b|delr+rdel|0>
 Rotatory Strengths (R) in cgs (10**-40 erg-esu-cm/Gauss)
       state          XX          YY          ZZ    R(velocity)    E-M Angle
         1       -45.2301     16.5551    -16.8550    -15.1767      102.51
         2         3.9670    -10.1509    -39.7536    -15.3125      132.57
         3         5.4864     20.2452     25.0650     16.9322       29.32
         4       -53.8081     -2.7353    -72.9919    -43.1784      147.10
         5        67.2830   -155.9255     48.0703    -13.5241       95.99
         6      -137.8133     44.4665    129.9344     12.1958       86.64
         7        37.1049    164.4447    -31.8763     56.5577       67.56
         8        26.4664    -29.6095    -34.9108    -12.6846       99.97
         9         8.6198      4.3690     28.1619     13.7169       33.85
        10       -21.3152     -8.3915    -95.9639    -41.8902      114.92
 1/2[<0|r|b>*<b|rxdel|0> + (<0|rxdel|b>*<b|r|0>)*]
 Rotatory Strengths (R) in cgs (10**-40 erg-esu-cm/Gauss)
       state          XX          YY          ZZ     R(length)
         1        50.4226   -120.7639      7.3958    -20.9818
         2        -3.6246    -26.5633    -24.6579    -18.2819
         3        56.2628      8.4278     -7.1975     19.1644
         4        -9.5489   -145.4967     12.3964    -47.5497
         5      -102.2533    183.2334   -122.7410    -13.9203
         6       363.7153    -52.1120   -257.8023     17.9336
         7       -69.6550    -22.9777    289.5531     65.6402
         8       -68.9991     22.7384      4.3200    -13.9802
         9        23.8480     17.4721      4.4875     15.2692
        10      -204.5164      4.4768     56.6068    -47.8109
  1/2[<0|del|b>*<b|r|0> + (<0|r|b>*<b|del|0>)*] (Au)
       state          X           Y           Z        Dip. S.   Osc.(frdel)
         1        -0.0195     -0.0089     -0.0082      0.0366      0.0244
         2        -0.0003     -0.0367     -0.0101      0.0471      0.0314
         3        -0.0005     -0.0002     -0.0002      0.0009      0.0006
         4        -0.0006     -0.0110     -0.0009      0.0126      0.0084
         5        -0.0920     -0.1049     -0.0370      0.2338      0.1559
         6        -0.1034     -0.0734     -0.0530      0.2298      0.1532
         7        -0.0286     -0.0006     -0.0656      0.0948      0.0632
         8        -0.0534     -0.0534      0.0001      0.1067      0.0711
         9        -0.0178     -0.0060      0.0020      0.0217      0.0145
        10        -0.1533     -0.0002     -0.0127      0.1662      0.1108

 Excitation energies and oscillator strengths:
 
 Excited State   1:      Singlet-A      5.7823 eV  214.42 nm  f=0.0291  <S**2>=0.000
      93 -> 104       -0.11545
      94 -> 105        0.12297
      95 -> 103        0.35937
      95 -> 104       -0.25144
      95 -> 105        0.18694
      95 -> 106        0.18451
      95 -> 109        0.14465
     101 -> 103        0.28258
 This state for optimization and/or second-order correction.
 Total Energy, E(TD-HF/TD-DFT) =  -1259.25588953    
 Copying the excited state density for this state as the 1-particle RhoCI density.
 
 Excited State   2:      Singlet-A      5.7871 eV  214.24 nm  f=0.0395  <S**2>=0.000
      91 -> 104        0.13862
      93 -> 102       -0.13779
      93 -> 105        0.18207
      94 -> 102       -0.14348
      94 -> 104       -0.13540
      94 -> 106       -0.12809
     101 -> 102        0.41017
     101 -> 104        0.19628
 
 Excited State   3:      Singlet-A      5.8283 eV  212.73 nm  f=0.0013  <S**2>=0.000
      93 -> 104        0.14980
      93 -> 106        0.12542
      94 -> 103        0.12976
      94 -> 105       -0.24033
      95 -> 103        0.20810
      95 -> 104       -0.16760
      96 -> 104       -0.12584
     101 -> 103       -0.18799
     101 -> 104       -0.11593
     101 -> 105        0.26118
 
 Excited State   4:      Singlet-A      5.8785 eV  210.91 nm  f=0.0093  <S**2>=0.000
      88 -> 102       -0.12184
      89 -> 102        0.12751
      90 -> 102        0.10325
      91 -> 102        0.23110
      93 -> 102        0.24607
      93 -> 103       -0.15073
      93 -> 104       -0.17264
      94 -> 104       -0.16117
      94 -> 105       -0.11984
      98 -> 102       -0.12559
     101 -> 102       -0.20604
     101 -> 103        0.12379
     101 -> 104        0.23696
     101 -> 105        0.10104
 
 Excited State   5:      Singlet-A      6.2279 eV  199.08 nm  f=0.1762  <S**2>=0.000
      91 -> 104       -0.10067
      93 -> 102        0.14598
      93 -> 105       -0.11326
      94 -> 102        0.11963
     101 -> 102        0.39453
     101 -> 103        0.18358
     101 -> 105        0.24184
     101 -> 106       -0.32727
 
 Excited State   6:      Singlet-A      6.3496 eV  195.26 nm  f=0.1905  <S**2>=0.000
      93 -> 104        0.12788
      95 -> 103       -0.10183
     100 -> 103        0.15130
     101 -> 102       -0.19700
     101 -> 103        0.49273
     101 -> 109       -0.12967
 
 Excited State   7:      Singlet-A      6.5540 eV  189.17 nm  f=0.0778  <S**2>=0.000
      97 -> 102        0.12028
      99 -> 102        0.16701
     100 -> 102       -0.30718
     100 -> 103       -0.18248
     100 -> 106        0.10177
     101 -> 103        0.13590
     101 -> 104        0.18401
     101 -> 105       -0.21035
     101 -> 106        0.11015
     101 -> 107        0.35229
 
 Excited State   8:      Singlet-A      6.6378 eV  186.78 nm  f=0.0746  <S**2>=0.000
      99 -> 102        0.40693
      99 -> 103        0.19536
      99 -> 106       -0.13944
      99 -> 107        0.10098
     100 -> 102        0.25188
     100 -> 103        0.27692
     100 -> 106       -0.12599
     101 -> 105       -0.12379
 
 Excited State   9:      Singlet-A      6.6719 eV  185.83 nm  f=0.0204  <S**2>=0.000
      99 -> 103       -0.11496
     100 -> 102        0.46397
     100 -> 103       -0.37016
     100 -> 109        0.15936
     101 -> 107        0.14611
 
 Excited State  10:      Singlet-A      6.6895 eV  185.34 nm  f=0.1183  <S**2>=0.000
      98 -> 102       -0.15731
      99 -> 102       -0.25820
      99 -> 103       -0.20004
      99 -> 107       -0.12089
     100 -> 103        0.30749
     101 -> 102        0.19003
     101 -> 104       -0.15538
     101 -> 105       -0.23925
     101 -> 106        0.15397
     101 -> 107        0.19562
 SavETr:  write IOETrn=   770 NScale= 10 NData=  16 NLR=1 NState=   10 LETran=     190.

 **********************************************************************

            Population analysis using the SCF Density.

 **********************************************************************

 Orbital symmetries:
       Occupied  (A) (A) (A) (A) (A) (A) (A) (A) (A) (A) (A) (A)
                 (A) (A) (A) (A) (A) (A) (A) (A) (A) (A) (A) (A)
                 (A) (A) (A) (A) (A) (A) (A) (A) (A) (A) (A) (A)
                 (A) (A) (A) (A) (A) (A) (A) (A) (A) (A) (A) (A)
                 (A) (A) (A) (A) (A) (A) (A) (A) (A) (A) (A) (A)
                 (A) (A) (A) (A) (A) (A) (A) (A) (A) (A) (A) (A)
                 (A) (A) (A) (A) (A) (A) (A) (A) (A) (A) (A) (A)
                 (A) (A) (A) (A) (A) (A) (A) (A) (A) (A) (A) (A)
                 (A) (A) (A) (A) (A)
       Virtual   (A) (A) (A) (A) (A) (A) (A) (A) (A) (A) (A) (A)
                 (A) (A) (A) (A) (A) (A) (A) (A) (A) (A) (A) (A)
                 (A) (A) (A) (A) (A) (A) (A) (A) (A) (A) (A) (A)
                 (A) (A) (A) (A) (A) (A) (A) (A) (A) (A) (A) (A)
                 (A) (A) (A) (A) (A) (A) (A) (A) (A) (A) (A) (A)
                 (A) (A) (A) (A) (A) (A) (A) (A) (A) (A) (A) (A)
                 (A) (A) (A) (A) (A) (A) (A) (A) (A) (A) (A) (A)
                 (A) (A) (A) (A) (A) (A) (A) (A) (A) (A) (A) (A)
                 (A) (A) (A) (A) (A) (A) (A) (A) (A) (A) (A) (A)
                 (A) (A) (A) (A) (A) (A) (A) (A) (A) (A) (A) (A)
                 (A) (A) (A) (A) (A) (A) (A) (A) (A) (A) (A) (A)
                 (A) (A) (A) (A) (A) (A) (A) (A) (A) (A) (A) (A)
                 (A) (A) (A) (A) (A) (A) (A) (A) (A) (A) (A) (A)
                 (A) (A) (A) (A) (A) (A) (A) (A) (A) (A) (A) (A)
                 (A) (A) (A) (A) (A) (A) (A) (A) (A) (A) (A) (A)
                 (A) (A) (A) (A) (A) (A) (A) (A) (A) (A) (A) (A)
                 (A) (A) (A) (A) (A) (A) (A) (A) (A) (A) (A) (A)
                 (A) (A) (A) (A) (A) (A) (A) (A) (A) (A) (A) (A)
                 (A) (A) (A) (A) (A) (A) (A) (A) (A) (A) (A) (A)
                 (A) (A) (A) (A) (A) (A) (A) (A) (A) (A) (A) (A)
                 (A) (A) (A) (A) (A) (A) (A) (A) (A) (A) (A) (A)
                 (A) (A) (A) (A) (A) (A) (A) (A) (A) (A) (A) (A)
                 (A) (A) (A) (A) (A) (A) (A) (A) (A) (A) (A) (A)
                 (A) (A) (A) (A) (A) (A) (A) (A) (A) (A) (A) (A)
                 (A) (A) (A) (A) (A) (A) (A) (A) (A) (A) (A) (A)
                 (A) (A) (A) (A) (A) (A) (A) (A) (A) (A) (A) (A)
                 (A) (A) (A) (A) (A) (A) (A) (A) (A) (A) (A) (A)
                 (A) (A) (A) (A) (A) (A) (A) (A) (A) (A) (A) (A)
                 (A) (A) (A) (A) (A) (A) (A) (A) (A) (A) (A) (A)
                 (A) (A) (A) (A) (A) (A) (A) (A) (A) (A) (A) (A)
                 (A) (A) (A) (A) (A) (A) (A) (A) (A) (A) (A) (A)
                 (A) (A) (A) (A) (A) (A) (A) (A) (A) (A) (A) (A)
                 (A) (A) (A) (A) (A) (A) (A) (A) (A) (A) (A) (A)
                 (A) (A) (A) (A) (A) (A) (A) (A) (A) (A) (A) (A)
                 (A) (A) (A) (A) (A) (A) (A) (A) (A) (A) (A) (A)
                 (A) (A) (A) (A) (A) (A) (A) (A) (A) (A) (A) (A)
                 (A) (A) (A) (A) (A) (A) (A) (A) (A) (A) (A) (A)
                 (A) (A) (A) (A) (A) (A) (A) (A) (A) (A) (A) (A)
                 (A) (A) (A) (A) (A) (A) (A) (A) (A) (A) (A) (A)
                 (A) (A) (A) (A) (A) (A) (A) (A) (A) (A) (A) (A)
                 (A) (A) (A) (A) (A) (A) (A) (A) (A) (A) (A) (A)
                 (A) (A) (A) (A) (A) (A) (A) (A) (A) (A) (A) (A)
                 (A) (A) (A) (A) (A) (A) (A) (A) (A) (A) (A) (A)
                 (A) (A) (A) (A) (A) (A) (A) (A) (A) (A) (A) (A)
                 (A) (A) (A) (A) (A) (A) (A) (A) (A) (A) (A) (A)
                 (A) (A) (A) (A) (A) (A) (A) (A) (A) (A) (A) (A)
                 (A) (A) (A) (A) (A) (A) (A) (A) (A) (A) (A) (A)
                 (A) (A) (A) (A) (A) (A) (A) (A) (A) (A) (A) (A)
                 (A) (A) (A) (A) (A) (A) (A) (A) (A) (A) (A) (A)
                 (A) (A) (A) (A) (A) (A) (A) (A) (A) (A) (A) (A)
                 (A) (A) (A) (A) (A) (A) (A) (A) (A) (A) (A) (A)
                 (A) (A) (A) (A) (A) (A) (A) (A) (A) (A) (A) (A)
                 (A) (A) (A) (A) (A) (A) (A) (A) (A) (A) (A) (A)
                 (A) (A) (A) (A) (A) (A) (A) (A) (A) (A) (A) (A)
                 (A) (A) (A) (A) (A) (A) (A) (A) (A) (A) (A) (A)
                 (A) (A) (A) (A) (A) (A) (A) (A) (A) (A) (A) (A)
                 (A) (A) (A) (A) (A) (A) (A) (A) (A) (A) (A) (A)
                 (A) (A) (A) (A) (A) (A) (A) (A) (A) (A) (A) (A)
                 (A) (A) (A) (A) (A) (A) (A) (A) (A) (A) (A) (A)
                 (A) (A) (A) (A) (A) (A) (A) (A) (A) (A) (A) (A)
                 (A) (A) (A) (A) (A) (A) (A) (A) (A) (A) (A) (A)
                 (A) (A) (A) (A) (A) (A) (A) (A) (A) (A) (A) (A)
                 (A) (A) (A) (A) (A) (A) (A) (A) (A) (A) (A) (A)
                 (A) (A) (A) (A) (A) (A) (A) (A) (A) (A) (A) (A)
                 (A) (A) (A) (A) (A) (A) (A) (A) (A) (A) (A) (A)
                 (A) (A) (A) (A) (A) (A) (A) (A) (A) (A) (A) (A)
                 (A) (A) (A) (A) (A) (A) (A) (A) (A) (A) (A) (A)
                 (A) (A) (A) (A) (A) (A) (A) (A) (A) (A) (A) (A)
                 (A) (A) (A) (A) (A) (A) (A) (A) (A) (A) (A) (A)
                 (A) (A) (A) (A) (A) (A) (A) (A) (A) (A) (A) (A)
                 (A) (A) (A) (A) (A) (A) (A) (A) (A) (A) (A) (A)
                 (A) (A) (A) (A) (A) (A) (A) (A) (A) (A) (A) (A)
                 (A) (A) (A) (A) (A) (A) (A) (A) (A) (A) (A) (A)
                 (A) (A) (A) (A) (A) (A) (A) (A) (A) (A) (A) (A)
                 (A) (A) (A) (A) (A) (A) (A) (A) (A) (A) (A) (A)
                 (A) (A) (A) (A) (A) (A) (A) (A) (A) (A) (A) (A)
                 (A) (A) (A) (A) (A) (A) (A) (A) (A) (A) (A) (A)
                 (A) (A) (A) (A) (A) (A) (A) (A) (A) (A) (A) (A)
                 (A) (A) (A) (A) (A) (A) (A) (A) (A) (A) (A) (A)
                 (A) (A) (A) (A) (A) (A) (A) (A) (A) (A) (A) (A)
                 (A) (A) (A) (A) (A) (A) (A) (A) (A) (A) (A) (A)
                 (A) (A) (A) (A) (A) (A) (A)
 The electronic state is 1-A.
 Alpha  occ. eigenvalues --  -19.26956 -19.26534 -19.26108 -19.26074 -19.22181
 Alpha  occ. eigenvalues --  -19.21726 -19.20962 -19.20841 -10.41169 -10.40790
 Alpha  occ. eigenvalues --  -10.40191 -10.40168 -10.32187 -10.31995 -10.31804
 Alpha  occ. eigenvalues --  -10.31802 -10.27293 -10.27263 -10.27160 -10.27155
 Alpha  occ. eigenvalues --  -10.26941 -10.26837 -10.26726 -10.26716  -1.20844
 Alpha  occ. eigenvalues --   -1.20410  -1.19810  -1.19783  -1.12435  -1.12077
 Alpha  occ. eigenvalues --   -1.11547  -1.11508  -0.89642  -0.89496  -0.89284
 Alpha  occ. eigenvalues --   -0.89237  -0.82166  -0.81905  -0.81595  -0.81552
 Alpha  occ. eigenvalues --   -0.81317  -0.80436  -0.71204  -0.71032  -0.70728
 Alpha  occ. eigenvalues --   -0.70658  -0.65127  -0.64774  -0.64254  -0.64156
 Alpha  occ. eigenvalues --   -0.60689  -0.60108  -0.59915  -0.59554  -0.59466
 Alpha  occ. eigenvalues --   -0.59143  -0.58630  -0.58321  -0.55719  -0.54913
 Alpha  occ. eigenvalues --   -0.54250  -0.54130  -0.53803  -0.51435  -0.50925
 Alpha  occ. eigenvalues --   -0.50855  -0.50515  -0.50370  -0.50108  -0.50085
 Alpha  occ. eigenvalues --   -0.49700  -0.49095  -0.48407  -0.48060  -0.46888
 Alpha  occ. eigenvalues --   -0.45353  -0.45136  -0.44702  -0.44487  -0.43722
 Alpha  occ. eigenvalues --   -0.43438  -0.43304  -0.43169  -0.42044  -0.41778
 Alpha  occ. eigenvalues --   -0.41702  -0.41287  -0.38772  -0.38445  -0.38231
 Alpha  occ. eigenvalues --   -0.37950  -0.37913  -0.37058  -0.36882  -0.36161
 Alpha  occ. eigenvalues --   -0.35402  -0.33962  -0.33490  -0.32991  -0.32563
 Alpha  occ. eigenvalues --   -0.30380
 Alpha virt. eigenvalues --    0.01585   0.01903   0.02652   0.03207   0.04408
 Alpha virt. eigenvalues --    0.05101   0.06416   0.06966   0.07425   0.07836
 Alpha virt. eigenvalues --    0.08443   0.10121   0.10349   0.10972   0.11005
 Alpha virt. eigenvalues --    0.11432   0.11943   0.12013   0.12713   0.13110
 Alpha virt. eigenvalues --    0.13512   0.13567   0.13919   0.15319   0.15698
 Alpha virt. eigenvalues --    0.16176   0.16286   0.16800   0.16936   0.17701
 Alpha virt. eigenvalues --    0.18312   0.18359   0.19159   0.19911   0.20521
 Alpha virt. eigenvalues --    0.20885   0.21399   0.21506   0.21631   0.22181
 Alpha virt. eigenvalues --    0.22386   0.22879   0.23215   0.23662   0.24551
 Alpha virt. eigenvalues --    0.25334   0.25451   0.25830   0.26000   0.26652
 Alpha virt. eigenvalues --    0.27280   0.28239   0.29142   0.29513   0.30253
 Alpha virt. eigenvalues --    0.30673   0.30862   0.31114   0.31711   0.32130
 Alpha virt. eigenvalues --    0.32577   0.32799   0.33220   0.34043   0.35257
 Alpha virt. eigenvalues --    0.35819   0.36025   0.36515   0.36778   0.37297
 Alpha virt. eigenvalues --    0.37422   0.37860   0.37921   0.38717   0.38837
 Alpha virt. eigenvalues --    0.40106   0.40499   0.41620   0.42237   0.42845
 Alpha virt. eigenvalues --    0.43222   0.44371   0.44524   0.44651   0.44808
 Alpha virt. eigenvalues --    0.45427   0.45723   0.46000   0.46546   0.46676
 Alpha virt. eigenvalues --    0.47004   0.47370   0.47505   0.47575   0.47756
 Alpha virt. eigenvalues --    0.48001   0.48073   0.48173   0.48676   0.48993
 Alpha virt. eigenvalues --    0.49193   0.49351   0.49884   0.50052   0.50386
 Alpha virt. eigenvalues --    0.50725   0.50965   0.51145   0.51411   0.51716
 Alpha virt. eigenvalues --    0.51837   0.52108   0.52192   0.52378   0.52662
 Alpha virt. eigenvalues --    0.52954   0.53438   0.53804   0.54338   0.54417
 Alpha virt. eigenvalues --    0.54930   0.55407   0.55914   0.56158   0.56565
 Alpha virt. eigenvalues --    0.57006   0.57417   0.58022   0.58563   0.59203
 Alpha virt. eigenvalues --    0.59709   0.60086   0.61191   0.61306   0.62378
 Alpha virt. eigenvalues --    0.63050   0.63514   0.64062   0.65309   0.65816
 Alpha virt. eigenvalues --    0.67685   0.68516   0.70070   0.70555   0.71501
 Alpha virt. eigenvalues --    0.72079   0.72851   0.73659   0.74379   0.74807
[...]
 Alpha virt. eigenvalues --    1.12037   1.12122   1.12311   1.12414   1.12873
 Alpha virt. eigenvalues --    1.13214   1.13981   1.14128   1.14729   1.15046
 Alpha virt. eigenvalues --    1.15364   1.15568   1.16573   1.16999   1.17371
 Alpha virt. eigenvalues --    1.17648   1.18098   1.18489   1.18788   1.19844
 Alpha virt. eigenvalues --    1.20242   1.20786   1.21046   1.21133   1.21444
 Alpha virt. eigenvalues --    1.21786   1.22096   1.23362   1.23737   1.23898
 Alpha virt. eigenvalues --    1.24402   1.24575   1.24703   1.24947   1.25175
 Alpha virt. eigenvalues --    1.25559   1.26070   1.26557   1.27078   1.27360
 Alpha virt. eigenvalues --    1.27949   1.28509   1.29392   1.29880   1.30515
 Alpha virt. eigenvalues --    1.31207   1.31626   1.32077   1.32698   1.32880
 Alpha virt. eigenvalues --    1.33064   1.33474   1.33819   1.34067   1.34405
 Alpha virt. eigenvalues --    1.34711   1.35072   1.35734   1.36641   1.37610
 Alpha virt. eigenvalues --    1.38075   1.38378   1.39042   1.39494   1.40395
 Alpha virt. eigenvalues --    1.40796   1.40970   1.41385   1.42098   1.42368
 Alpha virt. eigenvalues --    1.42820   1.43132   1.43294   1.44460   1.44989
 Alpha virt. eigenvalues --    1.45298   1.46169   1.46881   1.47339   1.47858
 Alpha virt. eigenvalues --    1.47944   1.49377   1.49764   1.50514   1.51363
 Alpha virt. eigenvalues --    1.52296   1.52864   1.53943   1.54790   1.55233
 Alpha virt. eigenvalues --    1.55755   1.57185   1.57750   1.58421   1.58847
 Alpha virt. eigenvalues --    1.59153   1.59581   1.60093   1.61155   1.61660
 Alpha virt. eigenvalues --    1.62130   1.63280   1.63478   1.64769   1.65660
 Alpha virt. eigenvalues --    1.65680   1.66947   1.67743   1.69796   1.70680
 Alpha virt. eigenvalues --    1.71123   1.71731   1.72842   1.74194   1.76949
 Alpha virt. eigenvalues --    1.77255   1.79945   1.80961   1.82660   1.84031
 Alpha virt. eigenvalues --    1.84945   1.85984   1.86858   1.87561   1.88992
 Alpha virt. eigenvalues --    1.89046   1.90501   1.90968   2.01626   2.01868
 Alpha virt. eigenvalues --    2.02699   2.03916   2.06983   2.07034   2.07453
 Alpha virt. eigenvalues --    2.07862   2.10793   2.10981   2.11401   2.13241
 Alpha virt. eigenvalues --    2.15205   2.15558   2.16609   2.17139   2.18832
 Alpha virt. eigenvalues --    2.18966   2.19783   2.20593   2.21336   2.22608
 Alpha virt. eigenvalues --    2.23882   2.24087   2.26574   2.26777   2.28699
 Alpha virt. eigenvalues --    2.29724   2.30233   2.31442   2.32401   2.33097
 Alpha virt. eigenvalues --    2.33389   2.33734   2.36964   2.38989   2.40401
 Alpha virt. eigenvalues --    2.40969   2.41547   2.42642   2.43531   2.43686
 Alpha virt. eigenvalues --    2.44175   2.44503   2.44998   2.45704   2.45842
 Alpha virt. eigenvalues --    2.46975   2.51681   2.51904   2.52183   2.52316
 Alpha virt. eigenvalues --    2.53243   2.53465   2.54164   2.54676   2.55267
 Alpha virt. eigenvalues --    2.55357   2.55596   2.56855   2.56899   2.57328
 Alpha virt. eigenvalues --    2.57598   2.57704   2.58174   2.58620   2.58967
 Alpha virt. eigenvalues --    2.59263   2.60531   2.60632   2.61480   2.61971
 Alpha virt. eigenvalues --    2.63974   2.64138   2.64561   2.64933   2.65514
 Alpha virt. eigenvalues --    2.65944   2.66339   2.66918   2.67342   2.67808
 Alpha virt. eigenvalues --    2.68195   2.68494   2.68751   2.69370   2.69938
 Alpha virt. eigenvalues --    2.70321   2.73360   2.74086   2.74391   2.74475
 Alpha virt. eigenvalues --    2.75311   2.75452   2.75754   2.76353   2.76569
 Alpha virt. eigenvalues --    2.76822   2.78078   2.79194   2.81186   2.81451
 Alpha virt. eigenvalues --    2.81833   2.82823   2.83310   2.84385   2.84507
 Alpha virt. eigenvalues --    2.86484   2.92276   2.93011   2.93107   2.93392
 Alpha virt. eigenvalues --    2.93580   2.94205   2.94367   2.94818   2.95564
 Alpha virt. eigenvalues --    2.95722   2.95960   2.96390   2.96887   2.97010
 Alpha virt. eigenvalues --    2.97551   2.98659   2.99066   2.99544   3.00103
 Alpha virt. eigenvalues --    3.00157   3.00762   3.00876   3.01240   3.01592
 Alpha virt. eigenvalues --    3.01691   3.01868   3.02512   3.02786   3.03155
 Alpha virt. eigenvalues --    3.03632   3.04428   3.04815   3.05361   3.05485
 Alpha virt. eigenvalues --    3.05868   3.06087   3.06227   3.07196   3.07541
 Alpha virt. eigenvalues --    3.07903   3.09654   3.09816   3.10147   3.10723
 Alpha virt. eigenvalues --    3.11785   3.12090   3.12353   3.13112   3.14031
 Alpha virt. eigenvalues --    3.14445   3.14570   3.15417   3.15959   3.16207
 Alpha virt. eigenvalues --    3.16638   3.16916   3.17607   3.17936   3.18404
 Alpha virt. eigenvalues --    3.18770   3.18978   3.19233   3.19695   3.20207
 Alpha virt. eigenvalues --    3.20648   3.20883   3.21262   3.21710   3.22064
 Alpha virt. eigenvalues --    3.22319   3.23316   3.23714   3.23848   3.24374
 Alpha virt. eigenvalues --    3.25048   3.25220   3.25375   3.25842   3.26327
 Alpha virt. eigenvalues --    3.26974   3.27857   3.28017   3.28881   3.29460
 Alpha virt. eigenvalues --    3.29651   3.30044   3.30710   3.31479   3.32967
 Alpha virt. eigenvalues --    3.33143   3.33541   3.34563   3.34628   3.34757
 Alpha virt. eigenvalues --    3.35213   3.36229   3.36578   3.36668   3.37110
 Alpha virt. eigenvalues --    3.37722   3.39091   3.39121   3.39520   3.40357
 Alpha virt. eigenvalues --    3.43810   3.44226   3.44555   3.45483   3.46589
 Alpha virt. eigenvalues --    3.46992   3.47298   3.47843   3.48300   3.48482
 Alpha virt. eigenvalues --    3.48618   3.49213   3.50343   3.50535   3.50587
 Alpha virt. eigenvalues --    3.50655   3.51040   3.51329   3.51703   3.52221
 Alpha virt. eigenvalues --    3.55825   3.56406   3.56663   3.57374   3.58415
 Alpha virt. eigenvalues --    3.58976   3.59186   3.59390   3.60514   3.60591
 Alpha virt. eigenvalues --    3.60841   3.61712   3.61900   3.62552   3.62932
 Alpha virt. eigenvalues --    3.63775   3.65380   3.65725   3.65885   3.66225
 Alpha virt. eigenvalues --    3.66577   3.66730   3.66863   3.67728   3.71298
 Alpha virt. eigenvalues --    3.71534   3.71970   3.72112   3.72573   3.72862
 Alpha virt. eigenvalues --    3.72929   3.74051   3.74504   3.74855   3.75606
 Alpha virt. eigenvalues --    3.77243   3.78710   3.79072   3.79123   3.79340
 Alpha virt. eigenvalues --    3.79504   3.79874   3.80092   3.80448   3.81731
 Alpha virt. eigenvalues --    3.82496   3.82812   3.83070   3.83497   3.84000
 Alpha virt. eigenvalues --    3.84280   3.84427   3.84854   3.85074   3.85485
 Alpha virt. eigenvalues --    3.86200   3.87442   3.87815   3.88170   3.88636
 Alpha virt. eigenvalues --    3.90540   3.90803   3.91513   3.92818   3.95753
 Alpha virt. eigenvalues --    3.95818   3.96259   3.96846   3.97636   3.97981
 Alpha virt. eigenvalues --    3.98346   3.98774   3.99594   3.99802   4.00649
 Alpha virt. eigenvalues --    4.01278   4.01897   4.02334   4.02591   4.02754
 Alpha virt. eigenvalues --    4.03153   4.03422   4.03928   4.04830   4.06213
 Alpha virt. eigenvalues --    4.06788   4.06997   4.07214   4.07747   4.07861
 Alpha virt. eigenvalues --    4.08240   4.08765   4.09739   4.09906   4.10582
 Alpha virt. eigenvalues --    4.10870   4.11888   4.12372   4.13619   4.13877
 Alpha virt. eigenvalues --    4.14126   4.14832   4.15091   4.15384   4.15779
 Alpha virt. eigenvalues --    4.16203   4.16501   4.17263   4.17743   4.17919
 Alpha virt. eigenvalues --    4.20229   4.20908   4.21706   4.22118   4.22470
 Alpha virt. eigenvalues --    4.22806   4.25462   4.25923   4.26390   4.26626
 Alpha virt. eigenvalues --    4.26972   4.27628   4.27754   4.28075   4.28232
 Alpha virt. eigenvalues --    4.28534   4.29236   4.30082   4.31467   4.31580
 Alpha virt. eigenvalues --    4.32090   4.33058   4.34561   4.34742   4.35838
 Alpha virt. eigenvalues --    4.36115   4.36631   4.36897   4.37425   4.38399
 Alpha virt. eigenvalues --    4.39140   4.39282   4.40001   4.41540   4.41796
 Alpha virt. eigenvalues --    4.41823   4.43081   4.44170   4.45760   4.48479
 Alpha virt. eigenvalues --    4.48787   4.50172   4.50572   4.51121   4.51522
 Alpha virt. eigenvalues --    4.52520   4.54573   4.54990   4.55168   4.56635
 Alpha virt. eigenvalues --    4.57977   4.58772   4.59276   4.60287   4.64436
 Alpha virt. eigenvalues --    4.64757   4.64896   4.65957   4.67066   4.67524
 Alpha virt. eigenvalues --    4.67696   4.67950   4.71702   4.72048   4.72788
 Alpha virt. eigenvalues --    4.73528   4.76185   4.76245   4.76404   4.77082
 Alpha virt. eigenvalues --    4.82772   4.82921   4.83419   4.83838   4.84089
 Alpha virt. eigenvalues --    4.84128   4.84803   4.85000   4.90596   4.90708
 Alpha virt. eigenvalues --    4.91068   4.91223   4.92611   4.92804   4.92845
 Alpha virt. eigenvalues --    4.93058   4.93172   4.93489   4.93903   4.94343
 Alpha virt. eigenvalues --    4.95695   4.96964   4.97687   4.98057   4.98994
 Alpha virt. eigenvalues --    4.99601   4.99686   5.00803   5.03823   5.04077
 Alpha virt. eigenvalues --    5.04128   5.05032   5.07837   5.08858   5.09380
 Alpha virt. eigenvalues --    5.10966   5.13392   5.13608   5.14820   5.15092
 Alpha virt. eigenvalues --    5.17578   5.17754   5.18145   5.19035   5.20920
 Alpha virt. eigenvalues --    5.21314   5.21733   5.21812   5.22377   5.22772
 Alpha virt. eigenvalues --    5.22995   5.23956   5.24174   5.24609   5.24851
 Alpha virt. eigenvalues --    5.25673   5.25988   5.26063   5.26226   5.27427
 Alpha virt. eigenvalues --    5.27694   5.27966   5.28075   5.28857   5.28969
 Alpha virt. eigenvalues --    5.29197   5.29394   5.29711   5.32878   5.33233
 Alpha virt. eigenvalues --    5.33338   5.34689   5.35570   5.36560   5.37446
 Alpha virt. eigenvalues --    5.39355   5.42789   5.43537   5.43942   5.44452
 Alpha virt. eigenvalues --    5.48179   5.48432   5.48599   5.49132   5.51917
 Alpha virt. eigenvalues --    5.52711   5.53062   5.53107   5.53188   5.53741
 Alpha virt. eigenvalues --    5.53789   5.54758   5.56104   5.56361   5.56804
 Alpha virt. eigenvalues --    5.57422   5.62974   5.63141   5.63660   5.63796
 Alpha virt. eigenvalues --    5.65849   5.66019   5.66808   5.66862   5.69382
 Alpha virt. eigenvalues --    5.70077   5.70446   5.71881   5.81106   5.81180
 Alpha virt. eigenvalues --    5.81441   5.81945   5.92877   5.93414   5.93781
 Alpha virt. eigenvalues --    5.94245   5.96443   5.96562   5.96656   5.97912
 Alpha virt. eigenvalues --    6.00188   6.00446   6.00605   6.01762   6.03778
 Alpha virt. eigenvalues --    6.03848   6.04024   6.05449   6.06689   6.07029
 Alpha virt. eigenvalues --    6.07268   6.08136   6.15432   6.15751   6.16198
 Alpha virt. eigenvalues --    6.17241   6.22834   6.23241   6.23481   6.24004
 Alpha virt. eigenvalues --    6.25897   6.26335   6.27641   6.27902   6.40319
 Alpha virt. eigenvalues --    6.40918   6.41343   6.41897   6.42612   6.43040
 Alpha virt. eigenvalues --    6.43914   6.46709   6.48058   6.48339   6.50110
 Alpha virt. eigenvalues --    6.52204   6.77272   6.77803   6.77972   6.79233
 Alpha virt. eigenvalues --    6.81049   6.81270   6.81742   6.82626   6.87437
 Alpha virt. eigenvalues --    6.88276   6.89016   6.89542   6.90022   6.90780
 Alpha virt. eigenvalues --    6.91938   6.93570   6.96567   6.96809   6.96911
 Alpha virt. eigenvalues --    6.97224   7.06843   7.07903   7.08467   7.09119
 Alpha virt. eigenvalues --    7.09235   7.10686   7.12653   7.15359   7.21767
 Alpha virt. eigenvalues --    7.22171   7.23042   7.23202   7.46296   7.46574
 Alpha virt. eigenvalues --    7.47283   7.48436   8.12815   8.62505   9.34631
 Alpha virt. eigenvalues --    9.50847   9.58319   9.86121  10.66362  11.23810
 Alpha virt. eigenvalues --   11.25751  11.29125  11.33149  11.34929  11.38141
 Alpha virt. eigenvalues --   11.42894  11.54005  12.16840  12.22288  12.23806
 Alpha virt. eigenvalues --   12.25678  12.55617  12.56355  12.59433  12.62988
 Alpha virt. eigenvalues --   13.03886  13.05850  13.07150  13.12911
          Condensed to atoms (all electrons):
 Mulliken charges:
               1
     1  Pb   1.116417
     2  Cl  -0.597891
     3  Cl  -0.599295
     4  O   -0.403217
     5  C    0.326087
     6  C   -0.177295
     7  O   -0.220386
     8  C   -0.186794
     9  C    0.009816
    10  H    0.114824
    11  H    0.101499
    12  H    0.118565
    13  H    0.114661
    14  H    0.089311
    15  H    0.132119
    16  O   -0.402249
    17  C    0.344960
    18  C   -0.247657
    19  O   -0.217231
    20  C   -0.182248
    21  C    0.008342
    22  H    0.113978
    23  H    0.107965
    24  H    0.118465
    25  H    0.114833
    26  H    0.116626
    27  H    0.144803
    28  O   -0.450622
    29  C    0.385056
    30  C   -0.204350
    31  O   -0.215264
    32  C   -0.186741
    33  C    0.005371
    34  H    0.119458
    35  H    0.113067
    36  H    0.121166
    37  H    0.116191
    38  H    0.112025
    39  H    0.105811
    40  O   -0.423575
    41  C    0.368210
    42  C   -0.265376
    43  O   -0.210092
    44  C   -0.179135
    45  C    0.006778
    46  H    0.116402
    47  H    0.110933
    48  H    0.119660
    49  H    0.116301
    50  H    0.127760
    51  H    0.131960
 Sum of Mulliken charges =  -0.00000
 Mulliken charges with hydrogens summed into heavy atoms:
               1
     1  Pb   1.116417
     2  Cl  -0.597891
     3  Cl  -0.599295
     4  O   -0.403217
     5  C    0.326087
     6  C    0.044135
     7  O   -0.220386
     8  C    0.046431
     9  C    0.226139
    16  O   -0.402249
    17  C    0.344960
    18  C    0.013772
    19  O   -0.217231
    20  C    0.051050
    21  C    0.230284
    28  O   -0.450622
    29  C    0.385056
    30  C    0.013486
    31  O   -0.215264
    32  C    0.050616
    33  C    0.237896
    40  O   -0.423575
    41  C    0.368210
    42  C   -0.005656
    43  O   -0.210092
    44  C    0.056825
    45  C    0.234113
 Electronic spatial extent (au):  <R**2>=          13749.5361
 Charge=              0.0000 electrons
 Dipole moment (field-independent basis, Debye):
    X=             -0.6760    Y=             10.7828    Z=             -6.2560  Tot=             12.4845
 Quadrupole moment (field-independent basis, Debye-Ang):
   XX=            -96.1068   YY=           -150.5153   ZZ=           -200.4637
   XY=             -9.2621   XZ=             -4.0760   YZ=              9.7456
 Traceless Quadrupole moment (field-independent basis, Debye-Ang):
   XX=             52.9218   YY=             -1.4867   ZZ=            -51.4351
   XY=             -9.2621   XZ=             -4.0760   YZ=              9.7456
 Octapole moment (field-independent basis, Debye-Ang**2):
  XXX=             -3.7541  YYY=            122.3003  ZZZ=            -21.9132  XYY=              3.0516
  XXY=           -101.6390  XXZ=            -42.6196  XZZ=             -8.2090  YZZ=             21.3427
  YYZ=             -2.9870  XYZ=            -68.9886
 Hexadecapole moment (field-independent basis, Debye-Ang**3):
 XXXX=          -7304.5078 YYYY=          -5722.7827 ZZZZ=          -2429.3596 XXXY=             -5.0760
 XXXZ=            264.7323 YYYX=            -63.1357 YYYZ=             65.3525 ZZZX=             43.0471
 ZZZY=              8.7581 XXYY=          -2036.4612 XXZZ=          -1962.1998 YYZZ=          -1401.3104
 XXYZ=            102.5112 YYXZ=           -230.4252 ZZXY=            -34.0491
 N-N= 2.411106606680D+03 E-N=-7.756676683994D+03  KE= 1.229770327784D+03
 Unable to Open any file for archive entry.
 1\1\GINC-MPCL046\SP\RCAM-B3LYP TD-FC\Gen\C16H24Cl2O8Pb1\EDBA4025\11-No
 v-2020\0\\# cam-b3lyp/gen pseudo=read TD=NStates=10 Geom=Check Guess=R
 ead empiricaldispersion=gd3bj SCRF=(read)\\PbCl2_gbl\\0,1\Pb,0,-0.0092
 048458,-0.6280966358,0.148445636\Cl,0,1.4504992262,1.1312368426,1.6631
 927179\Cl,0,-1.5411676953,-1.3628963878,2.2349589586\O,0,1.3789514811,
 0.6152793377,-1.9458594412\C,0,1.8585109008,1.7337413368,-1.7636287641
 \C,0,1.1579350909,3.036882459,-1.4446052288\O,0,3.2015589487,1.9206244
 744,-1.8100739529\C,0,2.2210812851,4.0897935753,-1.7678789555\C,0,3.51
 33505071,3.3154318323,-1.4887731903\H,0,4.3750746496,3.6085670965,-2.1
 143702599\H,0,3.802733952,3.3477395249,-0.4182434273\H,0,2.1450040094,
 5.0049086521,-1.1529752749\H,0,2.1702854624,4.3796236543,-2.8362589999
 \H,0,0.9384707412,2.9932035984,-0.3552202286\H,0,0.1981613335,3.121578
 0865,-1.9828453876\O,0,-1.7675689521,-2.1054338073,-1.3827764182\C,0,-
 2.9943146138,-2.0683124169,-1.297135463\C,0,-3.8775233382,-1.010841939
 7,-0.6702416717\O,0,-3.7442002512,-3.0815938986,-1.7948241079\C,0,-5.2
 670598343,-1.3364889565,-1.2249762053\C,0,-5.1582098864,-2.8408223748,
 -1.4992777466\H,0,-5.7364159266,-3.1930698435,-2.3721053261\H,0,-5.418
 6891765,-3.4558604858,-0.6134434373\H,0,-6.092315743,-1.1019309837,-0.
 528502729\H,0,-5.4424175081,-0.7872888359,-2.1710488214\H,0,-3.7989289
 058,-1.1446190686,0.4311869764\H,0,-3.4903516665,-0.0027297561,-0.9031
 056006\O,0,-1.5275433519,1.3839418347,-0.3580891139\C,0,-1.8698571709,
 2.2939480355,0.4088477698\C,0,-1.929007731,2.3076911474,1.9147088783\O
 ,0,-2.2403197574,3.4832877278,-0.1028825458\C,0,-2.8003814981,3.531063
 3887,2.2148474766\C,0,-2.540322897,4.4165269975,0.9919607255\H,0,-3.40
 20830344,5.0251702151,0.6662412328\H,0,-1.6508559139,5.0674397034,1.11
 32223\H,0,-2.5374969558,4.0428693658,3.1580218277\H,0,-3.869227927,3.2
 430151445,2.2591296935\H,0,-0.8775973351,2.4178052697,2.2637085676\H,0
 ,-2.2882363363,1.3345903372,2.298017441\O,0,1.8050871962,-2.3794796737
 ,0.8401682356\C,0,3.0048413262,-2.2310653938,0.5857092539\C,0,3.695383
 9857,-1.1173957908,-0.1678194981\O,0,3.8982598999,-3.142778125,1.02272
 48177\C,0,5.0747502074,-1.7077665345,-0.4745212208\C,0,5.2553094675,-2
 .7117076676,0.6684519841\H,0,5.8215220033,-3.6214633895,0.4012936343\H
 ,0,5.6990325581,-2.2534443406,1.5757263834\H,0,5.8842321714,-0.9561349
 51,-0.4981952204\H,0,5.0593029242,-2.23552883,-1.448430381\H,0,3.73309
 677,-0.2430602453,0.5183819937\H,0,3.1032521543,-0.799309305,-1.046457
 8866\\Version=ES64L-G16RevC.01\State=1-A\HF=-1259.4683837\RMSD=7.771e-
 09\PG=C01 [X(C16H24Cl2O8Pb1)]\\@
 The archive entry for this job was punched.


 THOUGH I SPEAK WITH THE TONGUES OF MEN AND OF ANGELS, 
 AND HAVE NOT LOVE,
 I AM BECOME AS SOUNDING BRASS, A TINKLING CYMBAL.
 AND THOUGH I HAVE THE GIFT OF PROPHECY,
 AND UNDERSTAND ALL MYSTERIES, AND ALL KNOWLEDGE.
 AND THOUGH I HAVE ALL FAITH, SO THAT I COULD REMOVE MOUNTAINS,
 AND HAVE NOT LOVE, I AM NOTHING.
 AND THOUGH I BESTOW ALL MY GOODS TO FEED THE POOR,
 AND THOUGH I GIVE MY BODY TO BE BURNED,
 AND HAVE NOT LOVE IT PROFITETH ME NOTHING.
 LOVE SUFFERETH LONG, AND IS KIND,
 LOVE ENVIETH NOT,
 LOVE VAUNTETH NOT ITSELF, IS NOT PUFFED UP,
 DOTH NOT BEHAVE ITSELF UNSEEMLY, SEEKETH NOT HER OWN,
 IS NOT EASILY PROVOKED, THINKETH NO EVIL,
 REJOICETH NOT IN INIQUITY, BUT REJOICETH IN THE TRUTH,
 BEARETH ALL THINGS, BELIEVETH ALL THINGS,
 HOPETH ALL THINGS, ENDURETH ALL THINGS.
 LOVE NEVER FAILETH, BUT WHETHER THERE BE PROPHECIES, THEY SHALL FAIL, 
 WHETHER THERE BE TONGUES, THEY SHALL CEASE,
 WHETHER THERE BE KNOWLEDGE, IT SHALL VANISH AWAY.
 FOR WE KNOW IN PART, AND WE PROPHESY IN PART.
 BUT WHEN THAT WHICH IS PERFECT IS COME, THEN THAT WHICH IS IN PART 
 SHALL BE DONE AWAY. 
 WHEN I WAS A CHILD, I SPAKE AS A CHILD, I UNDERSTOOD AS A CHILD, 
 I THOUGHT AS A CHILD.
 BUT WHEN I BECAME A MAN, I PUT AWAY CHILDISH THINGS.
 FOR NOW WE SEE THROUGH A GLASS, DARKLY, BUT THEN FACE TO FACE.
 NOW I KNOW IN PART. BUT THEN SHALL I KNOW EVEN AS ALSO I AM KNOWN.
 AND NOW ABIDETH FAITH, HOPE AND LOVE, THESE THREE.
 BUT THE GREATEST OF THESE IS LOVE.

                     I CORINTHIANS 13
 Job cpu time:       0 days 13 hours 45 minutes 40.1 seconds.
 Elapsed time:       0 days  2 hours 45 minutes  9.9 seconds.
 File lengths (MBytes):  RWF=   5632 Int=      0 D2E=      0 Chk=    536 Scr=      1
 Normal termination of Gaussian 16 at Wed Nov 11 21:42:56 2020.
