 Entering Gaussian System, Link 0=g16
 Input=02-PbCl2_nmp_22903251.com
 Output=02-PbCl2_nmp_22903251.log
 Initial command:
 /cm/shared/uniol/software/gaussian/g16.c01/g16/l1.exe "/scratch/22903251_edba4025/Gau-9178.inp" -scrdir="/scratch/22903251_edba4025/"
 Entering Link 1 = /cm/shared/uniol/software/gaussian/g16.c01/g16/l1.exe PID=      9179.
  
 Copyright (c) 1988-2019, Gaussian, Inc.  All Rights Reserved.
  
 This is part of the Gaussian(R) 16 program.  It is based on
 the Gaussian(R) 09 system (copyright 2009, Gaussian, Inc.),
 the Gaussian(R) 03 system (copyright 2003, Gaussian, Inc.),
 the Gaussian(R) 98 system (copyright 1998, Gaussian, Inc.),
 the Gaussian(R) 94 system (copyright 1995, Gaussian, Inc.),
 the Gaussian 92(TM) system (copyright 1992, Gaussian, Inc.),
 the Gaussian 90(TM) system (copyright 1990, Gaussian, Inc.),
 the Gaussian 88(TM) system (copyright 1988, Gaussian, Inc.),
 the Gaussian 86(TM) system (copyright 1986, Carnegie Mellon
 University), and the Gaussian 82(TM) system (copyright 1983,
 Carnegie Mellon University). Gaussian is a federally registered
 trademark of Gaussian, Inc.
  
 This software contains proprietary and confidential information,
 including trade secrets, belonging to Gaussian, Inc.
  
 This software is provided under written license and may be
 used, copied, transmitted, or stored only in accord with that
 written license.
  
 The following legend is applicable only to US Government
 contracts under FAR:
  
                    RESTRICTED RIGHTS LEGEND
  
 Use, reproduction and disclosure by the US Government is
 subject to restrictions as set forth in subparagraphs (a)
 and (c) of the Commercial Computer Software - Restricted
 Rights clause in FAR 52.227-19.
  
 Gaussian, Inc.
 340 Quinnipiac St., Bldg. 40, Wallingford CT 06492
  
  
 ---------------------------------------------------------------
 Warning -- This program may not be used in any manner that
 competes with the business of Gaussian, Inc. or will provide
 assistance to any competitor of Gaussian, Inc.  The licensee
 of this program is prohibited from giving any competitor of
 Gaussian, Inc. access to this program.  By using this program,
 the user acknowledges that Gaussian, Inc. is engaged in the
 business of creating and licensing software in the field of
 computational chemistry and represents and warrants to the
 licensee that it is not a competitor of Gaussian, Inc. and that
 it will not use this program in any manner prohibited above.
 ---------------------------------------------------------------
  

 Cite this work as:
 Gaussian 16, Revision C.01,
 M. J. Frisch, G. W. Trucks, H. B. Schlegel, G. E. Scuseria, 
 M. A. Robb, J. R. Cheeseman, G. Scalmani, V. Barone, 
 G. A. Petersson, H. Nakatsuji, X. Li, M. Caricato, A. V. Marenich, 
 J. Bloino, B. G. Janesko, R. Gomperts, B. Mennucci, H. P. Hratchian, 
 J. V. Ortiz, A. F. Izmaylov, J. L. Sonnenberg, D. Williams-Young, 
 F. Ding, F. Lipparini, F. Egidi, J. Goings, B. Peng, A. Petrone, 
 T. Henderson, D. Ranasinghe, V. G. Zakrzewski, J. Gao, N. Rega, 
 G. Zheng, W. Liang, M. Hada, M. Ehara, K. Toyota, R. Fukuda, 
 J. Hasegawa, M. Ishida, T. Nakajima, Y. Honda, O. Kitao, H. Nakai, 
 T. Vreven, K. Throssell, J. A. Montgomery, Jr., J. E. Peralta, 
 F. Ogliaro, M. J. Bearpark, J. J. Heyd, E. N. Brothers, K. N. Kudin, 
 V. N. Staroverov, T. A. Keith, R. Kobayashi, J. Normand, 
 K. Raghavachari, A. P. Rendell, J. C. Burant, S. S. Iyengar, 
 J. Tomasi, M. Cossi, J. M. Millam, M. Klene, C. Adamo, R. Cammi, 
 J. W. Ochterski, R. L. Martin, K. Morokuma, O. Farkas, 
 J. B. Foresman, and D. J. Fox, Gaussian, Inc., Wallingford CT, 2019.
 
 ******************************************
 Gaussian 16:  ES64L-G16RevC.01  3-Jul-2019
                22-Nov-2020 
 ******************************************
 %oldChk=01-PbCl2_nmp
 %chk=02-PbCl2_nmp
 %mem=16GB
 %NProcShared=5
 Will use up to    5 processors via shared memory.
 Copying data from "01-PbCl2_nmp.chk" to current chk file "02-PbCl2_nmp.chk"
 IOpt=  2 FromEx=T IUOpen= 4 IOptOp= 5 NList=   0 IFRang= 0 IUIn= 4 IUOut= 2.
 ----------------------------------------------------------------------
 # cam-b3lyp/gen pseudo=read TD=NStates=10 Geom=Check Guess=Read empiri
 caldispersion=gd3bj SCRF=(read)
 ----------------------------------------------------------------------
 1/29=2,38=1,40=2,172=1/1;
 2/12=2,40=1/2;
 3/5=7,11=9,14=-4,16=1,17=8,25=1,30=1,70=2203,74=-40,116=-2,124=41/1,2,3,8;
 4/5=1/1;
 5/5=2,38=6/2;
 8/6=1,10=1,108=10/1;
 9/41=10,42=1,70=2/14;
 6/7=2,8=2,9=2,10=2/1;
 99/5=1,9=1/99;
 ---------
 PbCl2_nmp
 ---------
 Structure from the checkpoint file:  "02-PbCl2_nmp.chk"
 Charge =  0 Multiplicity = 1
 Redundant internal coordinates found in file.  (old form).
 Pb,0,0.1035892025,-0.928578993,-0.4608718968
 Cl,0,-0.2804709926,-3.2737659399,-1.8460739985
 Cl,0,-0.2099076125,-1.9069337822,2.1270010684
 O,0,0.1031944797,0.7564449367,-2.5375908673
 C,0,0.3806010078,1.9635675792,-2.3488996566
 C,0,1.7676710286,2.581182324,-2.2899498152
 N,0,-0.5334140257,2.9439896333,-2.1151298833
 C,0,1.5111159165,4.0935696225,-2.3775102855
 C,0,0.0627152957,4.2568304358,-1.8718669837
 C,0,-1.9499435496,2.697786015,-1.944809887
 H,0,-2.1147653429,1.6052689485,-1.9120043113
 H,0,-2.2992164087,3.1450608677,-0.9906421374
 H,0,-2.5377847019,3.1482766678,-2.7717806754
 H,0,2.1929430112,2.277270204,-1.3095094422
 H,0,2.41775511,2.1750984765,-3.0865956194
 H,0,2.2233731235,4.6962304598,-1.7847821753
 H,0,1.5757597345,4.4285892532,-3.4314401149
 H,0,-0.499879852,5.0445366395,-2.4124122326
 H,0,0.0127036095,4.4907169304,-0.7843411496
 O,0,0.9068603948,1.4757300453,0.6605404251
 C,0,0.0886555857,2.1663480092,1.3141282713
 C,0,-1.3127716291,1.7649493171,1.7360321878
 N,0,0.3443462492,3.4141461126,1.7930619896
 C,0,-1.9496603793,3.0782270135,2.2119988844
 C,0,-0.74442847,3.9512933617,2.6122110668
 C,0,1.6448918183,4.0482987605,1.7294681566
 H,0,2.3063264642,3.4186493099,1.1071674505
 H,0,2.082389102,4.1479794226,2.7452429367
 H,0,1.565487222,5.0593124244,1.2805144455
 H,0,-1.2042437721,1.0083244583,2.5432813649
 H,0,-1.8428724284,1.2625557119,0.9047421389
 H,0,-2.6624834639,2.9472698903,3.0459455119
 H,0,-2.4931548617,3.5599283213,1.373878231
 H,0,-0.8924506569,5.028069774,2.3963503049
 H,0,-0.4877598508,3.8516043885,3.6910989882
 O,0,-2.4710600699,-0.3902799363,-0.5069082422
 C,0,-3.3867204204,-1.1090822084,-0.0279123046
 C,0,-3.3198468653,-2.5886340939,0.2921884108
 N,0,-4.6107142066,-0.6416684085,0.3238398352
 C,0,-4.7862020016,-2.9817529946,0.5237691166
 C,0,-5.4588663646,-1.6611066466,0.9458822544
 C,0,-4.9781804339,0.7586428229,0.297099967
 H,0,-4.1893095093,1.3138704367,-0.2411152963
 H,0,-5.0713192922,1.1627772715,1.3276517852
 H,0,-5.9476446225,0.8936418873,-0.2230883262
 H,0,-2.6878017554,-2.6835690862,1.2031706259
 H,0,-2.7965624431,-3.1388795738,-0.5126823232
 H,0,-4.9162896276,-3.773072389,1.2839584357
 H,0,-5.2364089341,-3.3392604662,-0.4235752541
 H,0,-6.5025261171,-1.5644917353,0.5860831884
 H,0,-5.4647558542,-1.5203344702,2.0504577451
 O,0,2.5692878694,-1.4867624484,-0.5200522902
 C,0,3.4128223166,-1.2911685395,0.3947432007
 C,0,3.1989514238,-0.5837770986,1.7181701432
 N,0,4.6927983353,-1.7335037277,0.3366814733
 C,0,4.6223139054,-0.3693465929,2.2553746721
 C,0,5.4540567847,-1.4633424783,1.5578475314
 C,0,5.2084700469,-2.5642153698,-0.7315732443
 H,0,4.422311452,-2.6560898507,-1.5024436
 H,0,5.4711592184,-3.5731685224,-0.3497698596
 H,0,6.1169841814,-2.1084754183,-1.1748359629
 H,0,2.5794355888,-1.2555355918,2.3514189612
 H,0,2.6090666773,0.3397793621,1.5671090181
 H,0,4.6924446511,-0.4357143871,3.3560852699
 H,0,4.9937450394,0.6287977366,1.9489029767
 H,0,6.4827637949,-1.1379498116,1.3046385154
 H,0,5.531046875,-2.3934542706,2.1649512871
 Recover connectivity data from disk.
                           ----------------------------
                           !    Current Parameters    !
                           ! (Angstroms and Degrees)  !
 --------------------------                            --------------------------
 ! Name  Definition              Value                                          !
 --------------------------------------------------------------------------------
 ! R1    R(1,2)                  2.7507                                         !
 ! R2    R(1,3)                  2.7843                                         !
 ! R3    R(1,4)                  2.6743                                         !
 ! R4    R(1,36)                 2.6307                                         !
 ! R5    R(1,52)                 2.5288                                         !
 ! R6    R(4,5)                  1.2529                                         !
 ! R7    R(5,6)                  1.5195                                         !
 ! R8    R(5,7)                  1.3606                                         !
 ! R9    R(6,8)                  1.5365                                         !
 ! R10   R(6,14)                 1.1111                                         !
 ! R11   R(6,15)                 1.1055                                         !
 ! R12   R(7,9)                  1.4622                                         !
 ! R13   R(7,10)                 1.4478                                         !
 ! R14   R(8,9)                  1.5428                                         !
 ! R15   R(8,16)                 1.1054                                         !
 ! R16   R(8,17)                 1.1078                                         !
 ! R17   R(9,18)                 1.1087                                         !
 ! R18   R(9,19)                 1.1135                                         !
 ! R19   R(10,11)                1.1054                                         !
 ! R20   R(10,12)                1.1102                                         !
 ! R21   R(10,13)                1.1101                                         !
 ! R22   R(11,36)                2.4665                                         !
 ! R23   R(12,33)                2.4085                                         !
 ! R24   R(14,20)                2.4855                                         !
 ! R25   R(20,21)                1.2544                                         !
 ! R26   R(20,63)                2.2382                                         !
 ! R27   R(21,22)                1.5176                                         !
 ! R28   R(21,23)                1.3608                                         !
 ! R29   R(22,24)                1.5352                                         !
 ! R30   R(22,30)                1.1117                                         !
 ! R31   R(22,31)                1.1065                                         !
 ! R32   R(23,25)                1.4646                                         !
 ! R33   R(23,26)                1.4483                                         !
 ! R34   R(24,25)                1.5411                                         !
 ! R35   R(24,32)                1.1049                                         !
 ! R36   R(24,33)                1.109                                          !
 ! R37   R(25,34)                1.1081                                         !
 ! R38   R(25,35)                1.1135                                         !
 ! R39   R(26,27)                1.1051                                         !
 ! R40   R(26,28)                1.1105                                         !
 ! R41   R(26,29)                1.1091                                         !
 ! R42   R(31,36)                2.2626                                         !
 ! R43   R(36,37)                1.2588                                         !
 ! R44   R(37,38)                1.5153                                         !
 ! R45   R(37,39)                1.3566                                         !
 ! R46   R(38,40)                1.5357                                         !
 ! R47   R(38,46)                1.1128                                         !
 ! R48   R(38,47)                1.1065                                         !
 ! R49   R(39,41)                1.4648                                         !
 ! R50   R(39,42)                1.448                                          !
 ! R51   R(40,41)                1.541                                          !
 ! R52   R(40,48)                1.105                                          !
 ! R53   R(40,49)                1.1081                                         !
 ! R54   R(41,50)                1.1082                                         !
 ! R55   R(41,51)                1.1135                                         !
 ! R56   R(42,43)                1.1047                                         !
 ! R57   R(42,44)                1.1109                                         !
 ! R58   R(42,45)                1.1085                                         !
 ! R59   R(52,53)                1.2596                                         !
 ! R60   R(53,54)                1.5158                                         !
 ! R61   R(53,55)                1.3555                                         !
 ! R62   R(54,56)                1.5364                                         !
 ! R63   R(54,62)                1.1118                                         !
 ! R64   R(54,63)                1.1062                                         !
 ! R65   R(55,57)                1.4642                                         !
 ! R66   R(55,58)                1.4482                                         !
 ! R67   R(56,57)                1.5412                                         !
 ! R68   R(56,64)                1.1049                                         !
 ! R69   R(56,65)                1.1082                                         !
 ! R70   R(57,66)                1.1083                                         !
 ! R71   R(57,67)                1.1134                                         !
 ! R72   R(58,59)                1.1049                                         !
 ! R73   R(58,60)                1.1103                                         !
 ! R74   R(58,61)                1.1089                                         !
 ! A1    A(2,1,3)               98.7865                                         !
 ! A2    A(2,1,4)               98.402                                          !
 ! A3    A(2,1,36)              91.6616                                         !
 ! A4    A(2,1,52)              86.3399                                         !
 ! A5    A(3,1,4)              160.5823                                         !
 ! A6    A(3,1,36)              88.7377                                         !
 ! A7    A(3,1,52)              93.0941                                         !
 ! A8    A(4,1,36)              81.7983                                         !
 ! A9    A(4,1,52)              96.9526                                         !
 ! A10   A(1,4,5)              119.3457                                         !
 ! A11   A(4,5,6)              126.8395                                         !
 ! A12   A(4,5,7)              124.8472                                         !
 ! A13   A(6,5,7)              108.2804                                         !
 ! A14   A(5,6,8)              104.2084                                         !
 ! A15   A(5,6,14)             105.8104                                         !
 ! A16   A(5,6,15)             111.0713                                         !
 ! A17   A(8,6,14)             112.5468                                         !
 ! A18   A(8,6,15)             114.7516                                         !
 ! A19   A(14,6,15)            108.0795                                         !
 ! A20   A(5,7,9)              113.6825                                         !
 ! A21   A(5,7,10)             123.7053                                         !
 ! A22   A(9,7,10)             122.1396                                         !
 ! A23   A(6,8,9)              104.019                                          !
 ! A24   A(6,8,16)             113.4851                                         !
 ! A25   A(6,8,17)             110.0081                                         !
 ! A26   A(9,8,16)             111.8081                                         !
 ! A27   A(9,8,17)             109.5479                                         !
 ! A28   A(16,8,17)            107.919                                          !
 ! A29   A(7,9,8)              103.486                                          !
 ! A30   A(7,9,18)             110.4819                                         !
 ! A31   A(7,9,19)             109.4362                                         !
 ! A32   A(8,9,18)             113.0659                                         !
 ! A33   A(8,9,19)             112.6121                                         !
 ! A34   A(18,9,19)            107.7071                                         !
 ! A35   A(7,10,11)            108.509                                          !
 ! A36   A(7,10,12)            109.9018                                         !
 ! A37   A(7,10,13)            111.1888                                         !
 ! A38   A(11,10,12)           109.0131                                         !
 ! A39   A(11,10,13)           110.1351                                         !
 ! A40   A(12,10,13)           108.0693                                         !
 ! A41   A(10,11,36)           146.9415                                         !
 ! A42   A(10,12,33)           159.8061                                         !
 ! A43   A(6,14,20)            126.128                                          !
 ! A44   A(14,20,21)           124.9551                                         !
 ! A45   A(14,20,63)            95.2323                                         !
 ! A46   A(21,20,63)           124.3621                                         !
 ! A47   A(20,21,22)           126.9812                                         !
 ! A48   A(20,21,23)           124.4473                                         !
 ! A49   A(22,21,23)           108.5542                                         !
 ! A50   A(21,22,24)           104.0653                                         !
 ! A51   A(21,22,30)           106.9618                                         !
 ! A52   A(21,22,31)           110.7088                                         !
 ! A53   A(24,22,30)           113.4269                                         !
 ! A54   A(24,22,31)           114.9961                                         !
 ! A55   A(30,22,31)           106.4553                                         !
 ! A56   A(21,23,25)           113.1707                                         !
 ! A57   A(21,23,26)           123.695                                          !
 ! A58   A(25,23,26)           122.109                                          !
 ! A59   A(22,24,25)           103.9276                                         !
 ! A60   A(22,24,32)           113.5949                                         !
 ! A61   A(22,24,33)           109.9117                                         !
 ! A62   A(25,24,32)           112.0671                                         !
 ! A63   A(25,24,33)           109.4788                                         !
 ! A64   A(32,24,33)           107.8024                                         !
 ! A65   A(23,25,24)           103.2007                                         !
 ! A66   A(23,25,34)           110.2877                                         !
 ! A67   A(23,25,35)           109.7391                                         !
 ! A68   A(24,25,34)           113.2933                                         !
 ! A69   A(24,25,35)           112.4068                                         !
 ! A70   A(34,25,35)           107.8506                                         !
 ! A71   A(23,26,27)           108.223                                          !
 ! A72   A(23,26,28)           110.6659                                         !
 ! A73   A(23,26,29)           110.6483                                         !
 ! A74   A(27,26,28)           109.2956                                         !
 ! A75   A(27,26,29)           109.53                                           !
 ! A76   A(28,26,29)           108.4614                                         !
 ! A77   A(22,31,36)           158.9688                                         !
 ! A78   A(12,33,24)           128.879                                          !
 ! A79   A(1,36,11)             91.9568                                         !
 ! A80   A(1,36,31)             82.3474                                         !
 ! A81   A(1,36,37)            126.044                                          !
 ! A82   A(11,36,31)            73.9955                                         !
 ! A83   A(11,36,37)           141.615                                          !
 ! A84   A(31,36,37)           112.4384                                         !
 ! A85   A(36,37,38)           127.2903                                         !
 ! A86   A(36,37,39)           123.9334                                         !
 ! A87   A(38,37,39)           108.752                                          !
 ! A88   A(37,38,40)           103.8671                                         !
 ! A89   A(37,38,46)           106.3378                                         !
 ! A90   A(37,38,47)           110.6564                                         !
 ! A91   A(40,38,46)           113.3928                                         !
 ! A92   A(40,38,47)           115.7181                                         !
 ! A93   A(46,38,47)           106.525                                          !
 ! A94   A(37,39,41)           113.1258                                         !
 ! A95   A(37,39,42)           123.8756                                         !
 ! A96   A(41,39,42)           122.2733                                         !
 ! A97   A(38,40,41)           103.8111                                         !
 ! A98   A(38,40,48)           113.5455                                         !
 ! A99   A(38,40,49)           109.9743                                         !
 ! A100  A(41,40,48)           111.9556                                         !
 ! A101  A(41,40,49)           109.4701                                         !
 ! A102  A(48,40,49)           108.0152                                         !
 ! A103  A(39,41,40)           103.1421                                         !
 ! A104  A(39,41,50)           110.29                                           !
 ! A105  A(39,41,51)           109.6536                                         !
 ! A106  A(40,41,50)           113.3832                                         !
 ! A107  A(40,41,51)           112.4803                                         !
 ! A108  A(50,41,51)           107.8225                                         !
 ! A109  A(39,42,43)           108.2911                                         !
 ! A110  A(39,42,44)           110.853                                          !
 ! A111  A(39,42,45)           110.3898                                         !
 ! A112  A(43,42,44)           109.2091                                         !
 ! A113  A(43,42,45)           109.5555                                         !
 ! A114  A(44,42,45)           108.5252                                         !
 ! A115  A(1,52,53)            126.9913                                         !
 ! A116  A(52,53,54)           127.7386                                         !
 ! A117  A(52,53,55)           123.4068                                         !
 ! A118  A(54,53,55)           108.8399                                         !
 ! A119  A(53,54,56)           103.8687                                         !
 ! A120  A(53,54,62)           107.0941                                         !
 ! A121  A(53,54,63)           110.2204                                         !
 ! A122  A(56,54,62)           113.666                                          !
 ! A123  A(56,54,63)           115.1655                                         !
 ! A124  A(62,54,63)           106.564                                          !
 ! A125  A(53,55,57)           113.2675                                         !
 ! A126  A(53,55,58)           123.7133                                         !
 ! A127  A(57,55,58)           122.4081                                         !
 ! A128  A(54,56,57)           104.0434                                         !
 ! A129  A(54,56,64)           113.4989                                         !
 ! A130  A(54,56,65)           109.8469                                         !
 ! A131  A(57,56,64)           111.9611                                         !
 ! A132  A(57,56,65)           109.469                                          !
 ! A133  A(64,56,65)           107.9573                                         !
 ! A134  A(55,57,56)           103.1715                                         !
 ! A135  A(55,57,66)           110.2568                                         !
 ! A136  A(55,57,67)           109.6696                                         !
 ! A137  A(56,57,66)           113.3245                                         !
 ! A138  A(56,57,67)           112.5528                                         !
 ! A139  A(66,57,67)           107.7988                                         !
 ! A140  A(55,58,59)           107.999                                          !
 ! A141  A(55,58,60)           110.6009                                         !
 ! A142  A(55,58,61)           110.5403                                         !
 ! A143  A(59,58,60)           109.433                                          !
 ! A144  A(59,58,61)           109.7705                                         !
 ! A145  A(60,58,61)           108.4875                                         !
 ! A146  A(20,63,54)           152.1967                                         !
 ! A147  L(36,1,52,2,-1)       178.0015                                         !
 ! A148  L(36,1,52,2,-2)       178.4508                                         !
 ! D1    D(2,1,4,5)           -173.3952                                         !
 ! D2    D(3,1,4,5)             34.5414                                         !
 ! D3    D(36,1,4,5)            96.1279                                         !
 ! D4    D(52,1,4,5)           -86.0889                                         !
 ! D5    D(2,1,36,11)         -114.9941                                         !
 ! D6    D(2,1,36,31)          171.4418                                         !
 ! D7    D(2,1,36,37)           59.1996                                         !
 ! D8    D(3,1,36,11)          146.2506                                         !
 ! D9    D(3,1,36,31)           72.6866                                         !
 ! D10   D(3,1,36,37)          -39.5557                                         !
 ! D11   D(4,1,36,11)          -16.7432                                         !
 ! D12   D(4,1,36,31)          -90.3073                                         !
 ! D13   D(4,1,36,37)          157.4505                                         !
 ! D14   D(2,1,52,53)         -142.2232                                         !
 ! D15   D(3,1,52,53)          -43.6061                                         !
 ! D16   D(4,1,52,53)          119.7463                                         !
 ! D17   D(1,4,5,6)             84.4062                                         !
 ! D18   D(1,4,5,7)            -93.2588                                         !
 ! D19   D(4,5,6,8)            166.9003                                         !
 ! D20   D(4,5,6,14)           -74.2322                                         !
 ! D21   D(4,5,6,15)            42.8168                                         !
 ! D22   D(7,5,6,8)            -15.1177                                         !
 ! D23   D(7,5,6,14)           103.7498                                         !
 ! D24   D(7,5,6,15)          -139.2012                                         !
 ! D25   D(4,5,7,9)            177.5237                                         !
 ! D26   D(4,5,7,10)             5.2777                                         !
 ! D27   D(6,5,7,9)             -0.5084                                         !
 ! D28   D(6,5,7,10)          -172.7543                                         !
 ! D29   D(5,6,8,9)             23.7733                                         !
 ! D30   D(5,6,8,16)           145.5071                                         !
 ! D31   D(5,6,8,17)           -93.4805                                         !
 ! D32   D(14,6,8,9)           -90.3957                                         !
 ! D33   D(14,6,8,16)           31.338                                          !
 ! D34   D(14,6,8,17)          152.3504                                         !
 ! D35   D(15,6,8,9)           145.45                                           !
 ! D36   D(15,6,8,16)          -92.8162                                         !
 ! D37   D(15,6,8,17)           28.1962                                         !
 ! D38   D(5,6,14,20)          -19.3363                                         !
 ! D39   D(8,6,14,20)           93.8533                                         !
 ! D40   D(15,6,14,20)        -138.3824                                         !
 ! D41   D(5,7,9,8)             15.7976                                         !
 ! D42   D(5,7,9,18)           137.1075                                         !
 ! D43   D(5,7,9,19)          -104.4614                                         !
 ! D44   D(10,7,9,8)          -171.8196                                         !
 ! D45   D(10,7,9,18)          -50.5097                                         !
 ! D46   D(10,7,9,19)           67.9214                                         !
 ! D47   D(5,7,10,11)            6.9425                                         !
 ! D48   D(5,7,10,12)          126.0581                                         !
 ! D49   D(5,7,10,13)         -114.3298                                         !
 ! D50   D(9,7,10,11)         -164.6669                                         !
 ! D51   D(9,7,10,12)          -45.5513                                         !
 ! D52   D(9,7,10,13)           74.0608                                         !
 ! D53   D(6,8,9,7)            -23.8808                                         !
 ! D54   D(6,8,9,18)          -143.4335                                         !
 ! D55   D(6,8,9,19)            94.1907                                         !
 ! D56   D(16,8,9,7)          -146.7219                                         !
 ! D57   D(16,8,9,18)           93.7254                                         !
 ! D58   D(16,8,9,19)          -28.6504                                         !
 ! D59   D(17,8,9,7)            93.6921                                         !
 ! D60   D(17,8,9,18)          -25.8606                                         !
 ! D61   D(17,8,9,19)         -148.2363                                         !
 ! D62   D(7,10,11,36)          98.8824                                         !
 ! D63   D(12,10,11,36)        -20.7905                                         !
 ! D64   D(13,10,11,36)       -139.1992                                         !
 ! D65   D(7,10,12,33)         -61.576                                          !
 ! D66   D(11,10,12,33)         57.2302                                         !
 ! D67   D(13,10,12,33)        176.9269                                         !
 ! D68   D(10,11,36,1)         -92.9662                                         !
 ! D69   D(10,11,36,31)        -11.5013                                         !
 ! D70   D(10,11,36,37)         94.6036                                         !
 ! D71   D(10,12,33,24)          0.1601                                         !
 ! D72   D(6,14,20,21)         -65.1426                                         !
 ! D73   D(6,14,20,63)         155.784                                          !
 ! D74   D(14,20,21,22)        132.0865                                         !
 ! D75   D(14,20,21,23)        -49.6002                                         !
 ! D76   D(63,20,21,22)       -100.1247                                         !
 ! D77   D(63,20,21,23)         78.1887                                         !
 ! D78   D(14,20,63,54)        -92.5776                                         !
 ! D79   D(21,20,63,54)        127.9957                                         !
 ! D80   D(20,21,22,24)       -167.6279                                         !
 ! D81   D(20,21,22,30)         72.0459                                         !
 ! D82   D(20,21,22,31)        -43.5429                                         !
 ! D83   D(23,21,22,24)         13.8392                                         !
 ! D84   D(23,21,22,30)       -106.487                                          !
 ! D85   D(23,21,22,31)        137.9242                                         !
 ! D86   D(20,21,23,25)       -175.3733                                         !
 ! D87   D(20,21,23,26)         -6.7662                                         !
 ! D88   D(22,21,23,25)          3.2055                                         !
 ! D89   D(22,21,23,26)        171.8127                                         !
 ! D90   D(21,22,24,25)        -24.2639                                         !
 ! D91   D(21,22,24,32)       -146.3167                                         !
 ! D92   D(21,22,24,33)         92.8159                                         !
 ! D93   D(30,22,24,25)         91.6058                                         !
 ! D94   D(30,22,24,32)        -30.4469                                         !
 ! D95   D(30,22,24,33)       -151.3144                                         !
 ! D96   D(31,22,24,25)       -145.5311                                         !
 ! D97   D(31,22,24,32)         92.4161                                         !
 ! D98   D(31,22,24,33)        -28.4514                                         !
 ! D99   D(21,22,31,36)         80.7586                                         !
 ! D100  D(24,22,31,36)       -161.6657                                         !
 ! D101  D(30,22,31,36)        -35.1454                                         !
 ! D102  D(21,23,25,24)        -18.7229                                         !
 ! D103  D(21,23,25,34)       -140.038                                          !
 ! D104  D(21,23,25,35)        101.286                                          !
 ! D105  D(26,23,25,24)        172.4651                                         !
 ! D106  D(26,23,25,34)         51.15                                           !
 ! D107  D(26,23,25,35)        -67.5261                                         !
 ! D108  D(21,23,26,27)          8.4584                                         !
 ! D109  D(21,23,26,28)       -111.2771                                         !
 ! D110  D(21,23,26,29)        128.4702                                         !
 ! D111  D(25,23,26,27)        176.0783                                         !
 ! D112  D(25,23,26,28)         56.3428                                         !
 ! D113  D(25,23,26,29)        -63.9099                                         !
 ! D114  D(22,24,25,23)         25.8333                                         !
 ! D115  D(22,24,25,34)        145.0909                                         !
 ! D116  D(22,24,25,35)        -92.3274                                         !
 ! D117  D(32,24,25,23)        148.8936                                         !
 ! D118  D(32,24,25,34)        -91.8489                                         !
 ! D119  D(32,24,25,35)         30.7329                                         !
 ! D120  D(33,24,25,23)        -91.5475                                         !
 ! D121  D(33,24,25,34)         27.71                                           !
 ! D122  D(33,24,25,35)        150.2918                                         !
 ! D123  D(22,24,33,12)        -17.2787                                         !
 ! D124  D(25,24,33,12)         96.2784                                         !
 ! D125  D(32,24,33,12)       -141.5729                                         !
 ! D126  D(22,31,36,1)         -41.8855                                         !
 ! D127  D(22,31,36,11)       -136.1511                                         !
 ! D128  D(22,31,36,37)         84.0475                                         !
 ! D129  D(1,36,37,38)         -20.3372                                         !
 ! D130  D(1,36,37,39)         157.6629                                         !
 ! D131  D(11,36,37,38)        150.2917                                         !
 ! D132  D(11,36,37,39)        -31.7083                                         !
 ! D133  D(31,36,37,38)       -117.3638                                         !
 ! D134  D(31,36,37,39)         60.6363                                         !
 ! D135  D(36,37,38,40)       -167.1087                                         !
 ! D136  D(36,37,38,46)         72.9887                                         !
 ! D137  D(36,37,38,47)        -42.3063                                         !
 ! D138  D(39,37,38,40)         14.6436                                         !
 ! D139  D(39,37,38,46)       -105.259                                          !
 ! D140  D(39,37,38,47)        139.446                                          !
 ! D141  D(36,37,39,41)       -175.7985                                         !
 ! D142  D(36,37,39,42)         -5.3838                                         !
 ! D143  D(38,37,39,41)          2.5213                                         !
 ! D144  D(38,37,39,42)        172.936                                          !
 ! D145  D(37,38,40,41)        -24.8621                                         !
 ! D146  D(37,38,40,48)       -146.6724                                         !
 ! D147  D(37,38,40,49)         92.1743                                         !
 ! D148  D(46,38,40,41)         90.1295                                         !
 ! D149  D(46,38,40,48)        -31.6808                                         !
 ! D150  D(46,38,40,49)       -152.8341                                         !
 ! D151  D(47,38,40,41)       -146.3427                                         !
 ! D152  D(47,38,40,48)         91.8471                                         !
 ! D153  D(47,38,40,49)        -29.3062                                         !
 ! D154  D(37,39,41,40)        -18.4692                                         !
 ! D155  D(37,39,41,50)       -139.8575                                         !
 ! D156  D(37,39,41,51)        101.5522                                         !
 ! D157  D(42,39,41,40)        170.9415                                         !
 ! D158  D(42,39,41,50)         49.5532                                         !
 ! D159  D(42,39,41,51)        -69.0371                                         !
 ! D160  D(37,39,42,43)         11.5222                                         !
 ! D161  D(37,39,42,44)       -108.2614                                         !
 ! D162  D(37,39,42,45)        131.4533                                         !
 ! D163  D(41,39,42,43)       -178.9125                                         !
 ! D164  D(41,39,42,44)         61.3038                                         !
 ! D165  D(41,39,42,45)        -58.9814                                         !
 ! D166  D(38,40,41,39)         26.0806                                         !
 ! D167  D(38,40,41,50)        145.35                                           !
 ! D168  D(38,40,41,51)        -91.9796                                         !
 ! D169  D(48,40,41,39)        148.944                                          !
 ! D170  D(48,40,41,50)        -91.7866                                         !
 ! D171  D(48,40,41,51)         30.8838                                         !
 ! D172  D(49,40,41,39)        -91.3074                                         !
 ! D173  D(49,40,41,50)         27.962                                          !
 ! D174  D(49,40,41,51)        150.6324                                         !
 ! D175  D(1,52,53,54)          -4.9433                                         !
 ! D176  D(1,52,53,55)         173.5038                                         !
 ! D177  D(52,53,54,56)       -167.4093                                         !
 ! D178  D(52,53,54,62)         72.0272                                         !
 ! D179  D(52,53,54,63)        -43.5117                                         !
 ! D180  D(55,53,54,56)         13.9604                                         !
 ! D181  D(55,53,54,62)       -106.6031                                         !
 ! D182  D(55,53,54,63)        137.858                                          !
 ! D183  D(52,53,55,57)       -176.0397                                         !
 ! D184  D(52,53,55,58)         -4.8289                                         !
 ! D185  D(54,53,55,57)          2.6628                                         !
 ! D186  D(54,53,55,58)        173.8735                                         !
 ! D187  D(53,54,56,57)        -23.9482                                         !
 ! D188  D(53,54,56,64)       -145.8938                                         !
 ! D189  D(53,54,56,65)         93.1519                                         !
 ! D190  D(62,54,56,57)         92.0775                                         !
 ! D191  D(62,54,56,64)        -29.8681                                         !
 ! D192  D(62,54,56,65)       -150.8225                                         !
 ! D193  D(63,54,56,57)       -144.5683                                         !
 ! D194  D(63,54,56,64)         93.4861                                         !
 ! D195  D(63,54,56,65)        -27.4683                                         !
 ! D196  D(53,54,63,20)         43.9318                                         !
 ! D197  D(56,54,63,20)        161.0149                                         !
 ! D198  D(62,54,63,20)        -71.9402                                         !
 ! D199  D(53,55,57,56)        -18.0123                                         !
 ! D200  D(53,55,57,66)       -139.3319                                         !
 ! D201  D(53,55,57,67)        102.1173                                         !
 ! D202  D(58,55,57,56)        170.6466                                         !
 ! D203  D(58,55,57,66)         49.327                                          !
 ! D204  D(58,55,57,67)        -69.2238                                         !
 ! D205  D(53,55,58,59)          6.27                                           !
 ! D206  D(53,55,58,60)       -113.4558                                         !
 ! D207  D(53,55,58,61)        126.3719                                         !
 ! D208  D(57,55,58,59)        176.6991                                         !
 ! D209  D(57,55,58,60)         56.9732                                         !
 ! D210  D(57,55,58,61)        -63.199                                          !
 ! D211  D(54,56,57,55)         25.2491                                         !
 ! D212  D(54,56,57,66)        144.467                                          !
 ! D213  D(54,56,57,67)        -92.8829                                         !
 ! D214  D(64,56,57,55)        148.2078                                         !
 ! D215  D(64,56,57,66)        -92.5742                                         !
 ! D216  D(64,56,57,67)         30.0759                                         !
 ! D217  D(65,56,57,55)        -92.1132                                         !
 ! D218  D(65,56,57,66)         27.1047                                         !
 ! D219  D(65,56,57,67)        149.7548                                         !
 --------------------------------------------------------------------------------
 Stoichiometry    C20H36Cl2N4O4Pb
 Framework group  C1[X(C20H36Cl2N4O4Pb)]
 Deg. of freedom   195
 Full point group                 C1      NOp   1
 Largest Abelian subgroup         C1      NOp   1
 Largest concise Abelian subgroup C1      NOp   1
                         Standard orientation:                         
 ---------------------------------------------------------------------
 Center     Atomic      Atomic             Coordinates (Angstroms)
 Number     Number       Type             X           Y           Z
 ---------------------------------------------------------------------
      1         82           0        0.114793   -0.933079   -0.458390
      2         17           0       -0.225719   -3.282383   -1.847999
      3         17           0       -0.135585   -1.929520    2.129459
      4          8           0        0.039686    0.759341   -2.527723
      5          6           0        0.287208    1.972756   -2.337828
      6          6           0        1.657880    2.627261   -2.295775
      7          7           0       -0.649413    2.927302   -2.087062
      8          6           0        1.359568    4.132519   -2.373294
      9          6           0       -0.085382    4.254767   -1.846636
     10          6           0       -2.056259    2.642392   -1.897879
     11          1           0       -2.191187    1.545715   -1.867398
     12          1           0       -2.403861    3.076408   -0.937001
     13          1           0       -2.667656    3.080087   -2.714578
     14          1           0        2.105020    2.331120   -1.322713
     15          1           0        2.307280    2.241911   -3.103204
     16          1           0        2.063708    4.751842   -1.788090
     17          1           0        1.400240    4.473231   -3.426597
     18          1           0       -0.676544    5.029125   -2.375864
     19          1           0       -0.126237    4.483015   -0.757531
     20          8           0        0.868995    1.487632    0.661812
     21          6           0        0.041879    2.153437    1.329772
     22          6           0       -1.342136    1.712823    1.769641
     23          7           0        0.270717    3.405806    1.810356
     24          6           0       -2.007267    3.006626    2.260093
     25          6           0       -0.820374    3.910272    2.647015
     26          6           0        1.552722    4.074986    1.731167
     27          1           0        2.221946    3.465785    1.096955
     28          1           0        2.001740    4.182481    2.741101
     29          1           0        1.439827    5.085224    1.287672
     30          1           0       -1.201886    0.956278    2.572063
     31          1           0       -1.870279    1.199557    0.943764
     32          1           0       -2.704420    2.853300    3.103421
     33          1           0       -2.575334    3.476757    1.431754
     34          1           0       -1.000318    4.983499    2.437832
     35          1           0       -0.545851    3.813359    3.721752
     36          8           0       -2.473783   -0.464122   -0.465916
     37          6           0       -3.362918   -1.209164    0.022857
     38          6           0       -3.251786   -2.687606    0.335699
     39          7           0       -4.593918   -0.776239    0.393775
     40          6           0       -4.703619   -3.120956    0.586213
     41          6           0       -5.405471   -1.820541    1.023352
     42          6           0       -4.999216    0.613764    0.378154
     43          1           0       -4.233257    1.192107   -0.168743
     44          1           0       -5.088560    1.011256    1.411621
     45          1           0       -5.979234    0.724622   -0.127767
     46          1           0       -2.604567   -2.769011    1.237288
     47          1           0       -2.725370   -3.220446   -0.478783
     48          1           0       -4.801609   -3.918424    1.344790
     49          1           0       -5.157443   -3.486789   -0.356214
     50          1           0       -6.456345   -1.750671    0.678684
     51          1           0       -5.399480   -1.684251    2.128489
     52          8           0        2.593512   -1.424440   -0.554621
     53          6           0        3.444371   -1.209744    0.349040
     54          6           0        3.230355   -0.513490    1.678337
     55          7           0        4.734817   -1.617228    0.271100
     56          6           0        4.654915   -0.262893    2.196371
     57          6           0        5.505778   -1.331393    1.482572
     58          6           0        5.257425   -2.429618   -0.807822
     59          1           0        4.463170   -2.539644   -1.567940
     60          1           0        5.552514   -3.432601   -0.434040
     61          1           0        6.146992   -1.947871   -1.261882
     62          1           0        2.638151   -1.204129    2.317380
     63          1           0        2.613788    0.394426    1.539512
     64          1           0        4.742401   -0.331604    3.295694
     65          1           0        4.995013    0.746068    1.888946
     66          1           0        6.521678   -0.977444    1.216301
     67          1           0        5.616329   -2.261435    2.084577
 ---------------------------------------------------------------------
 Rotational constants (GHZ):           0.1159066           0.0950903           0.0725113
 General basis read from cards:  (5D, 7F)
 ======================================================================================================
                                       Pseudopotential Parameters
 ======================================================================================================
  Center     Atomic      Valence      Angular      Power
  Number     Number     Electrons     Momentum     of R      Exponent        Coefficient   SO-Coeffient
 ======================================================================================================
    1         82            4
                                      G and up 
                                                     0      376.5803786       -0.17896050    0.00000000
                                                     1       86.4840014      -54.39723370    0.00000000
                                                     2       26.6784276     -199.70617590    0.00000000
                                                     2        9.4261986      -79.12239410    0.00000000
                                                     2        2.7101719      -24.98690200    0.00000000
                                                     2        0.8792031       -4.43979390    0.00000000
                                      S - G
                                                     0      132.4248796        2.81153860    0.00000000
                                                     1       47.2376044       65.03672050    0.00000000
                                                     2       17.6312727      212.78685450    0.00000000
                                                     2        5.4744712       72.10531750    0.00000000
                                                     2        1.2634856       33.01409400    0.00000000
                                                     2        0.7651447       -5.77084610    0.00000000
                                      P - G
                                                     0       67.8966454        4.87549110    0.00000000
                                                     1       24.9898225       63.91481020    0.00000000
                                                     2       10.7052939      148.10643580    0.00000000
                                                     2        3.2792568       47.31063010    0.00000000
                                                     2        0.8452522       21.03067020    0.00000000
                                                     2        0.6416245       -7.09307720    0.00000000
                                      D - G
                                                     0       68.8336005        3.21613880    0.00000000
                                                     1       24.2815874       55.73860860    0.00000000
                                                     2        9.4532762      121.41683510    0.00000000
                                                     2        2.4788185       19.34560640    0.00000000
                                                     2        2.4789161       15.36751680    0.00000000
                                                     2        0.5551738        6.12987240    0.00000000
                                      F - G
                                                     0      128.1021322        4.13536820    0.00000000
                                                     1       54.8029154       67.51284460    0.00000000
                                                     2       24.5529308      258.73731070    0.00000000
                                                     2        8.1144792      113.24782640    0.00000000
                                                     2        1.6931290       34.16802010    0.00000000
                                                     2        0.7670500       -6.55319560    0.00000000
    2         17            7
                                      D and up 
                                                     1       94.8130000      -10.00000000    0.00000000
                                                     2      165.6440000       66.27291700    0.00000000
                                                     2       30.8317000      -28.96859500    0.00000000
                                                     2       10.5841000      -12.86633700    0.00000000
                                                     2        3.7704000       -1.71021700    0.00000000
                                      S - D
                                                     0      128.8391000        3.00000000    0.00000000
                                                     1      120.3786000       12.85285100    0.00000000
                                                     2       63.5622000      275.67239800    0.00000000
                                                     2       18.0695000      115.67771200    0.00000000
                                                     2        3.8142000       35.06060900    0.00000000
                                      P - D
                                                     0      216.5263000        5.00000000    0.00000000
                                                     1       46.5723000        7.47948600    0.00000000
                                                     2      147.4685000      613.03200000    0.00000000
                                                     2       48.9869000      280.80068500    0.00000000
                                                     2       13.2096000      107.87882400    0.00000000
                                                     2        3.1831000       15.34395600    0.00000000
    3         17            7
                                      D and up 
                                                     1       94.8130000      -10.00000000    0.00000000
                                                     2      165.6440000       66.27291700    0.00000000
                                                     2       30.8317000      -28.96859500    0.00000000
                                                     2       10.5841000      -12.86633700    0.00000000
                                                     2        3.7704000       -1.71021700    0.00000000
                                      S - D
                                                     0      128.8391000        3.00000000    0.00000000
                                                     1      120.3786000       12.85285100    0.00000000
                                                     2       63.5622000      275.67239800    0.00000000
                                                     2       18.0695000      115.67771200    0.00000000
                                                     2        3.8142000       35.06060900    0.00000000
                                      P - D
                                                     0      216.5263000        5.00000000    0.00000000
                                                     1       46.5723000        7.47948600    0.00000000
                                                     2      147.4685000      613.03200000    0.00000000
                                                     2       48.9869000      280.80068500    0.00000000
                                                     2       13.2096000      107.87882400    0.00000000
                                                     2        3.1831000       15.34395600    0.00000000
    4          8
                                   No pseudopotential on this center.
    5          6
                                   No pseudopotential on this center.
    6          6
                                   No pseudopotential on this center.
    7          7
                                   No pseudopotential on this center.
    8          6
                                   No pseudopotential on this center.
    9          6
                                   No pseudopotential on this center.
   10          6
                                   No pseudopotential on this center.
   11          1
                                   No pseudopotential on this center.
   12          1
                                   No pseudopotential on this center.
   13          1
                                   No pseudopotential on this center.
   14          1
                                   No pseudopotential on this center.
   15          1
                                   No pseudopotential on this center.
   16          1
                                   No pseudopotential on this center.
   17          1
                                   No pseudopotential on this center.
   18          1
                                   No pseudopotential on this center.
   19          1
                                   No pseudopotential on this center.
   20          8
                                   No pseudopotential on this center.
   21          6
                                   No pseudopotential on this center.
   22          6
                                   No pseudopotential on this center.
   23          7
                                   No pseudopotential on this center.
   24          6
                                   No pseudopotential on this center.
   25          6
                                   No pseudopotential on this center.
   26          6
                                   No pseudopotential on this center.
   27          1
                                   No pseudopotential on this center.
   28          1
                                   No pseudopotential on this center.
   29          1
                                   No pseudopotential on this center.
   30          1
                                   No pseudopotential on this center.
   31          1
                                   No pseudopotential on this center.
   32          1
                                   No pseudopotential on this center.
   33          1
                                   No pseudopotential on this center.
   34          1
                                   No pseudopotential on this center.
   35          1
                                   No pseudopotential on this center.
   36          8
                                   No pseudopotential on this center.
   37          6
                                   No pseudopotential on this center.
   38          6
                                   No pseudopotential on this center.
   39          7
                                   No pseudopotential on this center.
   40          6
                                   No pseudopotential on this center.
   41          6
                                   No pseudopotential on this center.
   42          6
                                   No pseudopotential on this center.
   43          1
                                   No pseudopotential on this center.
   44          1
                                   No pseudopotential on this center.
   45          1
                                   No pseudopotential on this center.
   46          1
                                   No pseudopotential on this center.
   47          1
                                   No pseudopotential on this center.
   48          1
                                   No pseudopotential on this center.
   49          1
                                   No pseudopotential on this center.
   50          1
                                   No pseudopotential on this center.
   51          1
                                   No pseudopotential on this center.
   52          8
                                   No pseudopotential on this center.
   53          6
                                   No pseudopotential on this center.
   54          6
                                   No pseudopotential on this center.
   55          7
                                   No pseudopotential on this center.
   56          6
                                   No pseudopotential on this center.
   57          6
                                   No pseudopotential on this center.
   58          6
                                   No pseudopotential on this center.
   59          1
                                   No pseudopotential on this center.
   60          1
                                   No pseudopotential on this center.
   61          1
                                   No pseudopotential on this center.
   62          1
                                   No pseudopotential on this center.
   63          1
                                   No pseudopotential on this center.
   64          1
                                   No pseudopotential on this center.
   65          1
                                   No pseudopotential on this center.
   66          1
                                   No pseudopotential on this center.
   67          1
                                   No pseudopotential on this center.
 ======================================================================================================
 There are  1544 symmetry adapted cartesian basis functions of A   symmetry.
 There are  1368 symmetry adapted basis functions of A   symmetry.
  1368 basis functions,  2104 primitive gaussians,  1544 cartesian basis functions
   117 alpha electrons      117 beta electrons
       nuclear repulsion energy      3209.3873157862 Hartrees.
 NAtoms=   67 NActive=   67 NUniq=   67 SFac= 1.00D+00 NAtFMM=   60 NAOKFM=T Big=T
 Integral buffers will be    131072 words long.
 Raffenetti 1 integral format.
 Two-electron integral symmetry is turned on.
 Nuclear repulsion after empirical dispersion term =     3209.3087689129 Hartrees.
 Using the following non-standard input for PCM:
 eps=32.55
 --- end of non-standard input.
 ------------------------------------------------------------------------------
 Polarizable Continuum Model (PCM)
 =================================
 Model                : PCM.
 Atomic radii         : UFF (Universal Force Field).
 Polarization charges : Total charges.
 Charge compensation  : None.
 Solution method      : On-the-fly selection.
 Cavity type          : Scaled VdW (van der Waals Surface) (Alpha=1.100).
 Cavity algorithm     : GePol (No added spheres)
                        Default sphere list used, NSphG=   67.
                        Lebedev-Laikov grids with approx.  5.0 points / Ang**2.
                        Smoothing algorithm: York/Karplus (Gamma=1.0000).
                        Polarization charges: spherical gaussians, with
                                              point-specific exponents (IZeta= 3).
                        Self-potential: point-specific (ISelfS= 7).
                        Self-field    : sphere-specific E.n sum rule (ISelfD= 2).
 Solvent              : Water, Eps=  32.550000 Eps(inf)=   1.777849
 ------------------------------------------------------------------------------
 One-electron integrals computed using PRISM.
   1 Symmetry operations used in ECPInt.
 ECPInt:  NShTT=  129286 NPrTT=  452931 LenC2=   97241 LenP2D=  214303.
 LDataN:  DoStor=T MaxTD1= 7 Len=  274
 NBasis=  1368 RedAO= T EigKep=  1.87D-04  NBF=  1368
 NBsUse=  1368 1.00D-06 EigRej= -1.00D+00 NBFU=  1368
 Defaulting to unpruned grid for atomic number  82.
 Initial guess from the checkpoint file:  "02-PbCl2_nmp.chk"
 B after Tr=     0.000000   -0.000000   -0.000000
         Rot=    1.000000    0.000000   -0.000000   -0.000000 Ang=   0.00 deg.
 Requested convergence on RMS density matrix=1.00D-08 within 128 cycles.
 Requested convergence on MAX density matrix=1.00D-06.
 Requested convergence on             energy=1.00D-06.
 No special actions if energy rises.
 Defaulting to unpruned grid for atomic number  82.
 Defaulting to unpruned grid for atomic number  82.
 Defaulting to unpruned grid for atomic number  82.
 Defaulting to unpruned grid for atomic number  82.
 Defaulting to unpruned grid for atomic number  82.
 Inv3:  Mode=1 IEnd=    65707200.
 Iteration    1 A*A^-1 deviation from unit magnitude is 3.33D-15 for   2899.
 Iteration    1 A*A^-1 deviation from orthogonality  is 4.39D-15 for   1946    481.
 Iteration    1 A^-1*A deviation from unit magnitude is 4.66D-15 for    481.
 Iteration    1 A^-1*A deviation from orthogonality  is 3.35D-14 for   2520   2519.
 Error on total polarization charges =  0.01982
 SCF Done:  E(RCAM-B3LYP) =  -1337.20720515     A.U. after   11 cycles
            NFock= 11  Conv=0.77D-08     -V/T= 2.0235
 DoSCS=F DFT=T ScalE2(SS,OS)=  1.000000  1.000000
 ExpMin= 5.98D-02 ExpMax= 1.53D+04 ExpMxC= 5.22D+02 IAcc=3 IRadAn=         5 AccDes= 0.00D+00
 HarFok:  IExCor=  205 AccDes= 0.00D+00 IRadAn=         5 IDoV=-2 UseB2=F ITyADJ=14
 ICtDFT= 12500011 ScaDFX=  1.000000  1.000000  1.000000  1.000000
 Defaulting to unpruned grid for atomic number  82.
 GSVD:  LWork=       -1008 too small for GESVD, short by        4340 words or        4340 for optimal perf.
 Range of M.O.s used for correlation:    29  1368
 NBasis=  1368 NAE=   117 NBE=   117 NFC=    28 NFV=     0
 NROrb=   1340 NOA=    89 NOB=    89 NVA=  1251 NVB=  1251

 **** Warning!!: The largest alpha MO coefficient is  0.10891318D+02

 NEqPCM:  Using non-equilibrium solvation (IEInf=1, Eps=  32.5500, EpsInf=   1.7778)
 Inv3:  Mode=1 IEnd=    65707200.
 Iteration    1 A*A^-1 deviation from unit magnitude is 3.77D-15 for   2039.
 Iteration    1 A*A^-1 deviation from orthogonality  is 2.22D-15 for   2852    217.
 Iteration    1 A^-1*A deviation from unit magnitude is 3.66D-15 for   2363.
 Iteration    1 A^-1*A deviation from orthogonality  is 1.89D-15 for   3812   1732.
 Orbital symmetries:
       Occupied  (A) (A) (A) (A) (A) (A) (A) (A) (A) (A) (A) (A)
                 (A) (A) (A) (A) (A) (A) (A) (A) (A) (A) (A) (A)
                 (A) (A) (A) (A) (A) (A) (A) (A) (A) (A) (A) (A)
                 (A) (A) (A) (A) (A) (A) (A) (A) (A) (A) (A) (A)
                 (A) (A) (A) (A) (A) (A) (A) (A) (A) (A) (A) (A)
                 (A) (A) (A) (A) (A) (A) (A) (A) (A) (A) (A) (A)
                 (A) (A) (A) (A) (A) (A) (A) (A) (A) (A) (A) (A)
                 (A) (A) (A) (A) (A) (A) (A) (A) (A) (A) (A) (A)
                 (A) (A) (A) (A) (A) (A) (A) (A) (A) (A) (A) (A)
                 (A) (A) (A) (A) (A) (A) (A) (A) (A)
       Virtual   (A) (A) (A) (A) (A) (A) (A) (A) (A) (A) (A) (A)
                 (A) (A) (A) (A) (A) (A) (A) (A) (A) (A) (A) (A)
                 (A) (A) (A) (A) (A) (A) (A) (A) (A) (A) (A) (A)
                 (A) (A) (A) (A) (A) (A) (A) (A) (A) (A) (A) (A)
                 (A) (A) (A) (A) (A) (A) (A) (A) (A) (A) (A) (A)
                 (A) (A) (A) (A) (A) (A) (A) (A) (A) (A) (A) (A)
                 (A) (A) (A) (A) (A) (A) (A) (A) (A) (A) (A) (A)
                 (A) (A) (A) (A) (A) (A) (A) (A) (A) (A) (A) (A)
                 (A) (A) (A) (A) (A) (A) (A) (A) (A) (A) (A) (A)
                 (A) (A) (A) (A) (A) (A) (A) (A) (A) (A) (A) (A)
                 (A) (A) (A) (A) (A) (A) (A) (A) (A) (A) (A) (A)
                 (A) (A) (A) (A) (A) (A) (A) (A) (A) (A) (A) (A)
                 (A) (A) (A) (A) (A) (A) (A) (A) (A) (A) (A) (A)
                 (A) (A) (A) (A) (A) (A) (A) (A) (A) (A) (A) (A)
                 (A) (A) (A) (A) (A) (A) (A) (A) (A) (A) (A) (A)
                 (A) (A) (A) (A) (A) (A) (A) (A) (A) (A) (A) (A)
                 (A) (A) (A) (A) (A) (A) (A) (A) (A) (A) (A) (A)
                 (A) (A) (A) (A) (A) (A) (A) (A) (A) (A) (A) (A)
                 (A) (A) (A) (A) (A) (A) (A) (A) (A) (A) (A) (A)
                 (A) (A) (A) (A) (A) (A) (A) (A) (A) (A) (A) (A)
                 (A) (A) (A) (A) (A) (A) (A) (A) (A) (A) (A) (A)
                 (A) (A) (A) (A) (A) (A) (A) (A) (A) (A) (A) (A)
                 (A) (A) (A) (A) (A) (A) (A) (A) (A) (A) (A) (A)
                 (A) (A) (A) (A) (A) (A) (A) (A) (A) (A) (A) (A)
                 (A) (A) (A) (A) (A) (A) (A) (A) (A) (A) (A) (A)
                 (A) (A) (A) (A) (A) (A) (A) (A) (A) (A) (A) (A)
                 (A) (A) (A) (A) (A) (A) (A) (A) (A) (A) (A) (A)
                 (A) (A) (A) (A) (A) (A) (A) (A) (A) (A) (A) (A)
                 (A) (A) (A) (A) (A) (A) (A) (A) (A) (A) (A) (A)
                 (A) (A) (A) (A) (A) (A) (A) (A) (A) (A) (A) (A)
                 (A) (A) (A) (A) (A) (A) (A) (A) (A) (A) (A) (A)
                 (A) (A) (A) (A) (A) (A) (A) (A) (A) (A) (A) (A)
                 (A) (A) (A) (A) (A) (A) (A) (A) (A) (A) (A) (A)
                 (A) (A) (A) (A) (A) (A) (A) (A) (A) (A) (A) (A)
                 (A) (A) (A) (A) (A) (A) (A) (A) (A) (A) (A) (A)
                 (A) (A) (A) (A) (A) (A) (A) (A) (A) (A) (A) (A)
                 (A) (A) (A) (A) (A) (A) (A) (A) (A) (A) (A) (A)
                 (A) (A) (A) (A) (A) (A) (A) (A) (A) (A) (A) (A)
                 (A) (A) (A) (A) (A) (A) (A) (A) (A) (A) (A) (A)
                 (A) (A) (A) (A) (A) (A) (A) (A) (A) (A) (A) (A)
                 (A) (A) (A) (A) (A) (A) (A) (A) (A) (A) (A) (A)
                 (A) (A) (A) (A) (A) (A) (A) (A) (A) (A) (A) (A)
                 (A) (A) (A) (A) (A) (A) (A) (A) (A) (A) (A) (A)
                 (A) (A) (A) (A) (A) (A) (A) (A) (A) (A) (A) (A)
                 (A) (A) (A) (A) (A) (A) (A) (A) (A) (A) (A) (A)
                 (A) (A) (A) (A) (A) (A) (A) (A) (A) (A) (A) (A)
                 (A) (A) (A) (A) (A) (A) (A) (A) (A) (A) (A) (A)
                 (A) (A) (A) (A) (A) (A) (A) (A) (A) (A) (A) (A)
                 (A) (A) (A) (A) (A) (A) (A) (A) (A) (A) (A) (A)
                 (A) (A) (A) (A) (A) (A) (A) (A) (A) (A) (A) (A)
                 (A) (A) (A) (A) (A) (A) (A) (A) (A) (A) (A) (A)
                 (A) (A) (A) (A) (A) (A) (A) (A) (A) (A) (A) (A)
                 (A) (A) (A) (A) (A) (A) (A) (A) (A) (A) (A) (A)
                 (A) (A) (A) (A) (A) (A) (A) (A) (A) (A) (A) (A)
                 (A) (A) (A) (A) (A) (A) (A) (A) (A) (A) (A) (A)
                 (A) (A) (A) (A) (A) (A) (A) (A) (A) (A) (A) (A)
                 (A) (A) (A) (A) (A) (A) (A) (A) (A) (A) (A) (A)
                 (A) (A) (A) (A) (A) (A) (A) (A) (A) (A) (A) (A)
                 (A) (A) (A) (A) (A) (A) (A) (A) (A) (A) (A) (A)
                 (A) (A) (A) (A) (A) (A) (A) (A) (A) (A) (A) (A)
                 (A) (A) (A) (A) (A) (A) (A) (A) (A) (A) (A) (A)
                 (A) (A) (A) (A) (A) (A) (A) (A) (A) (A) (A) (A)
                 (A) (A) (A) (A) (A) (A) (A) (A) (A) (A) (A) (A)
                 (A) (A) (A) (A) (A) (A) (A) (A) (A) (A) (A) (A)
                 (A) (A) (A) (A) (A) (A) (A) (A) (A) (A) (A) (A)
                 (A) (A) (A) (A) (A) (A) (A) (A) (A) (A) (A) (A)
                 (A) (A) (A) (A) (A) (A) (A) (A) (A) (A) (A) (A)
                 (A) (A) (A) (A) (A) (A) (A) (A) (A) (A) (A) (A)
                 (A) (A) (A) (A) (A) (A) (A) (A) (A) (A) (A) (A)
                 (A) (A) (A) (A) (A) (A) (A) (A) (A) (A) (A) (A)
                 (A) (A) (A) (A) (A) (A) (A) (A) (A) (A) (A) (A)
                 (A) (A) (A) (A) (A) (A) (A) (A) (A) (A) (A) (A)
                 (A) (A) (A) (A) (A) (A) (A) (A) (A) (A) (A) (A)
                 (A) (A) (A) (A) (A) (A) (A) (A) (A) (A) (A) (A)
                 (A) (A) (A) (A) (A) (A) (A) (A) (A) (A) (A) (A)
                 (A) (A) (A) (A) (A) (A) (A) (A) (A) (A) (A) (A)
                 (A) (A) (A) (A) (A) (A) (A) (A) (A) (A) (A) (A)
                 (A) (A) (A) (A) (A) (A) (A) (A) (A) (A) (A) (A)
                 (A) (A) (A) (A) (A) (A) (A) (A) (A) (A) (A) (A)
                 (A) (A) (A) (A) (A) (A) (A) (A) (A) (A) (A) (A)
                 (A) (A) (A) (A) (A) (A) (A) (A) (A) (A) (A) (A)
                 (A) (A) (A) (A) (A) (A) (A) (A) (A) (A) (A) (A)
                 (A) (A) (A) (A) (A) (A) (A) (A) (A) (A) (A) (A)
                 (A) (A) (A) (A) (A) (A) (A) (A) (A) (A) (A) (A)
                 (A) (A) (A) (A) (A) (A) (A) (A) (A) (A) (A) (A)
                 (A) (A) (A) (A) (A) (A) (A) (A) (A) (A) (A) (A)
                 (A) (A) (A) (A) (A) (A) (A) (A) (A) (A) (A) (A)
                 (A) (A) (A) (A) (A) (A) (A) (A) (A) (A) (A) (A)
                 (A) (A) (A) (A) (A) (A) (A) (A) (A) (A) (A) (A)
                 (A) (A) (A) (A) (A) (A) (A) (A) (A) (A) (A) (A)
                 (A) (A) (A) (A) (A) (A) (A) (A) (A) (A) (A) (A)
                 (A) (A) (A) (A) (A) (A) (A) (A) (A) (A) (A) (A)
                 (A) (A) (A) (A) (A) (A) (A) (A) (A) (A) (A) (A)
                 (A) (A) (A) (A) (A) (A) (A) (A) (A) (A) (A) (A)
                 (A) (A) (A) (A) (A) (A) (A) (A) (A) (A) (A) (A)
                 (A) (A) (A) (A) (A) (A) (A) (A) (A) (A) (A) (A)
                 (A) (A) (A) (A) (A) (A) (A) (A) (A) (A) (A) (A)
                 (A) (A) (A) (A) (A) (A) (A) (A) (A) (A) (A) (A)
                 (A) (A) (A) (A) (A) (A) (A) (A) (A) (A) (A) (A)
                 (A) (A) (A) (A) (A) (A) (A) (A) (A) (A) (A) (A)
                 (A) (A) (A) (A) (A) (A) (A) (A) (A) (A) (A) (A)
                 (A) (A) (A) (A) (A) (A) (A) (A) (A) (A) (A) (A)
                 (A) (A) (A) (A) (A) (A) (A) (A) (A) (A) (A) (A)
                 (A) (A) (A) (A) (A) (A) (A) (A) (A) (A) (A) (A)
                 (A) (A) (A)
    40 initial guesses have been made.
 Convergence on wavefunction:    0.001000000000000
 Iteration     1 Dimension    40 NMult     0 NNew     40
 CISAX will form    40 AO SS matrices at one time.
 Defaulting to unpruned grid for atomic number  82.
 Defaulting to unpruned grid for atomic number  82.
 Defaulting to unpruned grid for atomic number  82.
 Defaulting to unpruned grid for atomic number  82.
 Defaulting to unpruned grid for atomic number  82.
 New state      4 was old state      6
 New state      5 was old state      4
 New state      6 was old state      7
 New state      7 was old state      8
 New state      8 was old state     11
 New state      9 was old state     13
 New state     10 was old state     15
 Iteration     2 Dimension    60 NMult    40 NNew     20
 Iteration     3 Dimension    80 NMult    60 NNew     20
 New state      4 was old state      5
 New state      5 was old state      4
 Iteration     4 Dimension   100 NMult    80 NNew     20
 Iteration     5 Dimension   120 NMult   100 NNew     20
 Iteration     6 Dimension   140 NMult   120 NNew     20
 New state      4 was old state     10
 New state      5 was old state      4
 New state      6 was old state      5
 New state      7 was old state      6
 New state      8 was old state      7
 New state      9 was old state      8
 New state     10 was old state      9
 Iteration     7 Dimension   158 NMult   140 NNew     18
 Iteration     8 Dimension   176 NMult   158 NNew     18
 Iteration     9 Dimension   192 NMult   176 NNew     16
 Iteration    10 Dimension   196 NMult   192 NNew      4
 ***********************************************************************
 Excited states from <AA,BB:AA,BB> singles matrix:
 ***********************************************************************
 
 Ground to excited state transition densities written to RWF  633
 Ground to excited state transition electric dipole moments (Au):
       state          X           Y           Z        Dip. S.      Osc.
         1         0.3671      0.5558     -0.6212      0.8296      0.1182
         2         0.1392     -0.8010      0.1095      0.6730      0.0961
         3         0.1531     -0.3830     -0.1240      0.1855      0.0269
         4         0.0825      0.0615     -0.0297      0.0115      0.0017
         5         0.1621     -0.8114      0.6504      1.1076      0.1659
         6         1.7149     -0.6198     -0.0668      3.3295      0.5062
         7         0.6256      1.2472      0.7102      2.4513      0.3853
         8         0.6261      0.5416     -0.0096      0.6854      0.1119
         9        -0.8541     -0.0368      0.0745      0.7364      0.1209
        10        -1.5037      0.8059      0.1620      2.9370      0.4853
 Ground to excited state transition velocity dipole moments (Au):
       state          X           Y           Z        Dip. S.      Osc.
         1        -0.0647     -0.1055      0.0996      0.0252      0.0786
         2        -0.0289      0.1521     -0.0114      0.0241      0.0750
         3        -0.0281      0.0706      0.0207      0.0062      0.0190
         4        -0.0106     -0.0108      0.0087      0.0003      0.0009
         5        -0.0361      0.1701     -0.1123      0.0428      0.1272
         6        -0.3593      0.1315      0.0169      0.1466      0.4287
         7        -0.1282     -0.2581     -0.1351      0.1013      0.2864
         8        -0.1629     -0.1388     -0.0058      0.0458      0.1248
         9         0.2185      0.0031     -0.0374      0.0491      0.1330
        10         0.3868     -0.1985     -0.0357      0.1903      0.5117
 Ground to excited state transition magnetic dipole moments (Au):
       state          X           Y           Z
         1        -0.8221      0.2568     -0.5316
         2         0.3330      0.5396      0.6603
         3         1.1598     -0.1243     -0.1875
         4        -0.2716     -0.9587     -0.2336
         5         0.9771      0.4661     -0.0650
         6         0.1969      0.8051     -0.1539
         7         0.0723      0.6547     -0.3531
         8         0.5679      0.7996     -0.2578
         9         1.0195     -0.1839      1.4515
        10        -0.6018     -0.1493      0.2541
 Ground to excited state transition velocity quadrupole moments (Au):
       state          XX          YY          ZZ          XY          XZ          YZ
         1        -0.1355     -0.3847      0.0537      0.5068     -0.1808      0.2456
         2        -0.1446      0.3774      0.1052      0.0629     -0.0212     -0.0288
         3         0.1464     -0.0676     -0.0259      0.0050     -0.0034     -0.1615
         4        -0.0093      0.0405     -0.1211     -0.0201      0.0800      0.0611
[...]
 Alpha virt. eigenvalues --    2.28319   2.30799   2.32390   2.32787   2.34311
 Alpha virt. eigenvalues --    2.35056   2.35954   2.36515   2.37393   2.38325
 Alpha virt. eigenvalues --    2.39781   2.39853   2.40671   2.42010   2.42463
 Alpha virt. eigenvalues --    2.43101   2.43969   2.44414   2.45570   2.45966
 Alpha virt. eigenvalues --    2.46508   2.47584   2.47959   2.48745   2.49102
 Alpha virt. eigenvalues --    2.49405   2.49770   2.50099   2.51240   2.52221
 Alpha virt. eigenvalues --    2.52990   2.53476   2.54533   2.55200   2.55530
 Alpha virt. eigenvalues --    2.56197   2.56444   2.56632   2.57047   2.57529
 Alpha virt. eigenvalues --    2.57824   2.58695   2.59269   2.59306   2.59977
 Alpha virt. eigenvalues --    2.61390   2.61901   2.62382   2.62471   2.62651
 Alpha virt. eigenvalues --    2.63194   2.64002   2.64331   2.65010   2.65322
 Alpha virt. eigenvalues --    2.65691   2.65778   2.66169   2.66284   2.66668
 Alpha virt. eigenvalues --    2.66934   2.67285   2.67647   2.68193   2.68474
 Alpha virt. eigenvalues --    2.68708   2.69622   2.69993   2.70944   2.71210
 Alpha virt. eigenvalues --    2.71593   2.71831   2.72062   2.72381   2.72757
 Alpha virt. eigenvalues --    2.73249   2.74124   2.74401   2.74880   2.75434
 Alpha virt. eigenvalues --    2.75490   2.76452   2.77456   2.77607   2.78013
 Alpha virt. eigenvalues --    2.78113   2.78331   2.79393   2.79916   2.79978
 Alpha virt. eigenvalues --    2.80768   2.81096   2.81445   2.81618   2.82917
 Alpha virt. eigenvalues --    2.83062   2.83529   2.84345   2.85242   2.85555
 Alpha virt. eigenvalues --    2.86010   2.86723   2.86830   2.87341   2.87569
 Alpha virt. eigenvalues --    2.88083   2.88490   2.89235   2.89396   2.89955
 Alpha virt. eigenvalues --    2.90278   2.90574   2.91685   2.92640   2.92979
 Alpha virt. eigenvalues --    2.93400   2.93762   2.93906   2.94408   2.95193
 Alpha virt. eigenvalues --    2.95343   2.96118   2.96686   2.96852   2.97126
 Alpha virt. eigenvalues --    2.97226   2.97977   2.98167   2.98906   2.99868
 Alpha virt. eigenvalues --    3.00166   3.00465   3.00758   3.01139   3.01457
 Alpha virt. eigenvalues --    3.02157   3.02548   3.02828   3.03022   3.03069
 Alpha virt. eigenvalues --    3.04013   3.04387   3.04515   3.04597   3.04900
 Alpha virt. eigenvalues --    3.05436   3.05495   3.06311   3.06412   3.06572
 Alpha virt. eigenvalues --    3.06889   3.07070   3.07485   3.07582   3.08037
 Alpha virt. eigenvalues --    3.08321   3.08456   3.09207   3.09685   3.10098
 Alpha virt. eigenvalues --    3.10534   3.10726   3.11179   3.11711   3.12313
 Alpha virt. eigenvalues --    3.12730   3.12837   3.13290   3.13622   3.13751
 Alpha virt. eigenvalues --    3.14193   3.14355   3.14619   3.14870   3.15158
 Alpha virt. eigenvalues --    3.15586   3.15754   3.16157   3.16863   3.17385
 Alpha virt. eigenvalues --    3.17520   3.17891   3.18103   3.18766   3.19268
 Alpha virt. eigenvalues --    3.19314   3.20546   3.20741   3.20904   3.21936
 Alpha virt. eigenvalues --    3.22151   3.22460   3.22745   3.22960   3.23368
 Alpha virt. eigenvalues --    3.23559   3.23771   3.24220   3.24441   3.25161
 Alpha virt. eigenvalues --    3.25400   3.26046   3.26573   3.27190   3.27436
 Alpha virt. eigenvalues --    3.27748   3.28057   3.28532   3.28643   3.28868
 Alpha virt. eigenvalues --    3.29882   3.30383   3.30930   3.31414   3.31576
 Alpha virt. eigenvalues --    3.32172   3.32866   3.33313   3.33564   3.33845
 Alpha virt. eigenvalues --    3.34215   3.34650   3.34756   3.34873   3.35041
 Alpha virt. eigenvalues --    3.35220   3.35463   3.35809   3.36229   3.37161
 Alpha virt. eigenvalues --    3.37707   3.37862   3.38387   3.38884   3.38976
 Alpha virt. eigenvalues --    3.39231   3.39579   3.39736   3.40182   3.40602
 Alpha virt. eigenvalues --    3.40815   3.41625   3.42229   3.42653   3.43382
 Alpha virt. eigenvalues --    3.43810   3.44023   3.44357   3.44984   3.45626
 Alpha virt. eigenvalues --    3.46053   3.46704   3.47087   3.47329   3.47490
 Alpha virt. eigenvalues --    3.47938   3.48108   3.48470   3.48885   3.49195
 Alpha virt. eigenvalues --    3.49481   3.49741   3.50139   3.50511   3.50695
 Alpha virt. eigenvalues --    3.51212   3.51655   3.52248   3.52445   3.52738
 Alpha virt. eigenvalues --    3.53240   3.54048   3.54343   3.54708   3.55730
 Alpha virt. eigenvalues --    3.55937   3.56522   3.56736   3.57130   3.57628
 Alpha virt. eigenvalues --    3.58009   3.58266   3.58753   3.59134   3.59486
 Alpha virt. eigenvalues --    3.60106   3.60253   3.60298   3.60940   3.61820
 Alpha virt. eigenvalues --    3.62095   3.62756   3.63536   3.63638   3.63703
 Alpha virt. eigenvalues --    3.65104   3.65607   3.66269   3.66854   3.67245
 Alpha virt. eigenvalues --    3.67487   3.67718   3.68871   3.69410   3.70442
 Alpha virt. eigenvalues --    3.71174   3.71279   3.71599   3.71959   3.72124
 Alpha virt. eigenvalues --    3.72587   3.72959   3.73122   3.73366   3.73487
 Alpha virt. eigenvalues --    3.73800   3.74194   3.74681   3.75188   3.75716
 Alpha virt. eigenvalues --    3.76334   3.77036   3.77604   3.77873   3.78719
 Alpha virt. eigenvalues --    3.79396   3.79966   3.80000   3.80525   3.81021
 Alpha virt. eigenvalues --    3.81409   3.81531   3.81998   3.82105   3.82772
 Alpha virt. eigenvalues --    3.83289   3.83461   3.84288   3.84514   3.85234
 Alpha virt. eigenvalues --    3.86156   3.86364   3.86605   3.87238   3.87279
 Alpha virt. eigenvalues --    3.87767   3.88660   3.89048   3.89467   3.89569
 Alpha virt. eigenvalues --    3.90966   3.91210   3.92196   3.92673   3.93392
 Alpha virt. eigenvalues --    3.94236   3.94388   3.94992   3.95443   3.95701
 Alpha virt. eigenvalues --    3.95925   3.96300   3.96728   3.97799   3.97917
 Alpha virt. eigenvalues --    3.98274   3.98491   3.98926   3.99246   3.99526
 Alpha virt. eigenvalues --    3.99843   4.00436   4.00906   4.01401   4.02044
 Alpha virt. eigenvalues --    4.02173   4.02420   4.02710   4.03567   4.04383
 Alpha virt. eigenvalues --    4.04704   4.04869   4.05414   4.05544   4.05915
 Alpha virt. eigenvalues --    4.06037   4.06596   4.06782   4.07361   4.07705
 Alpha virt. eigenvalues --    4.07817   4.07879   4.09248   4.09592   4.09975
 Alpha virt. eigenvalues --    4.10363   4.10595   4.11180   4.11648   4.11977
 Alpha virt. eigenvalues --    4.12379   4.12933   4.13006   4.13268   4.13702
 Alpha virt. eigenvalues --    4.14323   4.14656   4.15134   4.15598   4.16024
 Alpha virt. eigenvalues --    4.16235   4.16744   4.17399   4.17572   4.18642
 Alpha virt. eigenvalues --    4.18773   4.19779   4.20344   4.20394   4.20589
 Alpha virt. eigenvalues --    4.21281   4.21438   4.21901   4.22592   4.22808
 Alpha virt. eigenvalues --    4.23345   4.23729   4.24081   4.25386   4.25689
 Alpha virt. eigenvalues --    4.26110   4.26240   4.26777   4.27190   4.27602
 Alpha virt. eigenvalues --    4.28002   4.28413   4.28849   4.28986   4.29371
 Alpha virt. eigenvalues --    4.30136   4.30500   4.30834   4.31448   4.31873
 Alpha virt. eigenvalues --    4.32039   4.32470   4.33051   4.33338   4.33462
 Alpha virt. eigenvalues --    4.34267   4.34703   4.34913   4.35298   4.36369
 Alpha virt. eigenvalues --    4.36927   4.37144   4.38223   4.38384   4.38666
 Alpha virt. eigenvalues --    4.38766   4.39085   4.39905   4.40349   4.40728
 Alpha virt. eigenvalues --    4.40884   4.41104   4.42167   4.42603   4.43167
 Alpha virt. eigenvalues --    4.44109   4.44719   4.45344   4.45939   4.46701
 Alpha virt. eigenvalues --    4.47222   4.48507   4.49461   4.49721   4.50178
 Alpha virt. eigenvalues --    4.50655   4.51212   4.51325   4.51742   4.52726
 Alpha virt. eigenvalues --    4.53942   4.54685   4.55232   4.55783   4.56337
 Alpha virt. eigenvalues --    4.57022   4.57674   4.58122   4.58751   4.59452
 Alpha virt. eigenvalues --    4.60610   4.61402   4.62789   4.63552   4.65219
 Alpha virt. eigenvalues --    4.65365   4.69177   4.69331   4.69696   4.70137
 Alpha virt. eigenvalues --    4.70417   4.71061   4.71757   4.73039   4.74134
 Alpha virt. eigenvalues --    4.74326   4.75232   4.75526   4.77010   4.77383
 Alpha virt. eigenvalues --    4.78075   4.78530   4.79757   4.79895   4.80397
 Alpha virt. eigenvalues --    4.81879   4.82153   4.82486   4.83400   4.84381
 Alpha virt. eigenvalues --    4.85080   4.85329   4.86294   4.86527   4.86668
 Alpha virt. eigenvalues --    4.86937   4.87410   4.88755   4.88971   4.89150
 Alpha virt. eigenvalues --    4.89542   4.89926   4.92891   4.93338   4.93697
 Alpha virt. eigenvalues --    4.94225   4.96166   4.96373   4.97245   4.97545
 Alpha virt. eigenvalues --    4.98131   4.98607   4.99273   4.99415   5.00128
 Alpha virt. eigenvalues --    5.00623   5.00734   5.01067   5.01380   5.01729
 Alpha virt. eigenvalues --    5.02081   5.02411   5.03385   5.03816   5.04090
 Alpha virt. eigenvalues --    5.04870   5.05789   5.06277   5.06530   5.07102
 Alpha virt. eigenvalues --    5.09127   5.09139   5.10453   5.11093   5.11765
 Alpha virt. eigenvalues --    5.12192   5.12951   5.13392   5.13597   5.14099
 Alpha virt. eigenvalues --    5.14166   5.14521   5.14695   5.15061   5.15578
 Alpha virt. eigenvalues --    5.16466   5.17630   5.18097   5.18280   5.19017
 Alpha virt. eigenvalues --    5.19652   5.19859   5.20121   5.20251   5.20703
 Alpha virt. eigenvalues --    5.20995   5.21579   5.21814   5.22155   5.22224
 Alpha virt. eigenvalues --    5.22863   5.23973   5.24441   5.25076   5.25286
 Alpha virt. eigenvalues --    5.25581   5.25837   5.25965   5.26619   5.26696
 Alpha virt. eigenvalues --    5.27774   5.28402   5.28942   5.29953   5.30144
 Alpha virt. eigenvalues --    5.30361   5.30663   5.30969   5.31504   5.31917
 Alpha virt. eigenvalues --    5.32407   5.32679   5.33357   5.33605   5.33961
 Alpha virt. eigenvalues --    5.36329   5.36565   5.37070   5.37241   5.38212
 Alpha virt. eigenvalues --    5.38798   5.38941   5.39945   5.40799   5.41439
 Alpha virt. eigenvalues --    5.41778   5.42228   5.43187   5.43558   5.44505
 Alpha virt. eigenvalues --    5.45090   5.45482   5.46237   5.46373   5.46901
 Alpha virt. eigenvalues --    5.47289   5.47789   5.48653   5.48790   5.49514
 Alpha virt. eigenvalues --    5.50869   5.51037   5.51739   5.51996   5.54611
 Alpha virt. eigenvalues --    5.54755   5.55052   5.57407   5.58666   5.58860
 Alpha virt. eigenvalues --    5.59482   5.60363   5.60959   5.61600   5.62452
 Alpha virt. eigenvalues --    5.63275   5.65534   5.66123   5.67240   5.68718
 Alpha virt. eigenvalues --    5.73441   5.74136   5.75064   5.75378   5.75494
 Alpha virt. eigenvalues --    5.76017   5.76189   5.76714   5.77621   5.78327
 Alpha virt. eigenvalues --    5.78884   5.80399   5.87345   5.90340   5.90767
 Alpha virt. eigenvalues --    5.90980   5.91885   5.92159   5.93365   5.93433
 Alpha virt. eigenvalues --    5.94958   5.95235   5.95474   5.95936   5.96664
 Alpha virt. eigenvalues --    5.96972   5.97397   5.97908   5.98748   5.98921
 Alpha virt. eigenvalues --    5.99765   6.01426   6.01781   6.03190   6.03842
 Alpha virt. eigenvalues --    6.04321   6.05188   6.06312   6.08035   6.08439
 Alpha virt. eigenvalues --    6.08615   6.09549   6.10951   6.12626   6.12970
 Alpha virt. eigenvalues --    6.13957   6.16825   6.18227   6.23701   6.24659
 Alpha virt. eigenvalues --    6.26527   6.27483   6.40746   6.41477   6.43153
 Alpha virt. eigenvalues --    6.44126   6.46477   6.49121   6.51905   6.54790
 Alpha virt. eigenvalues --    6.56449   6.57639   6.59153   6.61997   6.80577
 Alpha virt. eigenvalues --    6.81916   6.82981   6.83608   6.90945   6.93733
 Alpha virt. eigenvalues --    6.94957   6.98818   7.05635   7.09935   7.13857
 Alpha virt. eigenvalues --    7.14895   7.16134   7.16450   7.19818   7.21100
 Alpha virt. eigenvalues --    7.91455   8.27501   9.43368   9.55796   9.65651
 Alpha virt. eigenvalues --    9.84520  10.61194  11.46853  11.53886  11.54996
 Alpha virt. eigenvalues --   11.72985  11.88803  11.90025  11.97779  12.07380
 Alpha virt. eigenvalues --   12.28656  12.31419  12.33885  12.50497  12.72058
 Alpha virt. eigenvalues --   12.75004  12.80126  12.87913  13.00467  13.04736
 Alpha virt. eigenvalues --   13.11032  13.13573  13.51343  13.61492  13.64161
 Alpha virt. eigenvalues --   13.69722
          Condensed to atoms (all electrons):
 Mulliken charges:
               1
     1  Pb   1.070407
     2  Cl  -0.635553
     3  Cl  -0.620015
     4  O   -0.482238
     5  C    0.215508
     6  C   -0.180676
     7  N   -0.013786
     8  C   -0.194031
     9  C   -0.110928
    10  C   -0.233259
    11  H    0.120364
    12  H    0.108242
    13  H    0.122277
    14  H    0.122675
    15  H    0.122399
    16  H    0.114151
    17  H    0.112741
    18  H    0.115958
    19  H    0.106683
    20  O   -0.488415
    21  C    0.255002
    22  C   -0.190684
    23  N   -0.036098
    24  C   -0.198408
    25  C   -0.090872
    26  C   -0.233031
    27  H    0.129013
    28  H    0.122790
    29  H    0.118953
    30  H    0.102900
    31  H    0.108344
    32  H    0.120839
    33  H    0.114666
    34  H    0.113337
    35  H    0.111274
    36  O   -0.502026
    37  C    0.273793
    38  C   -0.185495
    39  N   -0.031249
    40  C   -0.189904
    41  C   -0.078974
    42  C   -0.221050
    43  H    0.126109
    44  H    0.114210
    45  H    0.118529
    46  H    0.085131
    47  H    0.088484
    48  H    0.112307
    49  H    0.107961
    50  H    0.109280
    51  H    0.102652
    52  O   -0.516398
    53  C    0.291777
    54  C   -0.232858
    55  N   -0.035519
    56  C   -0.185201
    57  C   -0.082420
    58  C   -0.199656
    59  H    0.115041
    60  H    0.108820
    61  H    0.111491
    62  H    0.095088
    63  H    0.144566
    64  H    0.113042
    65  H    0.108013
    66  H    0.109239
    67  H    0.104690
 Sum of Mulliken charges =  -0.00000
 Mulliken charges with hydrogens summed into heavy atoms:
               1
     1  Pb   1.070407
     2  Cl  -0.635553
     3  Cl  -0.620015
     4  O   -0.482238
     5  C    0.215508
     6  C    0.064398
     7  N   -0.013786
     8  C    0.032862
     9  C    0.111713
    10  C    0.117624
    20  O   -0.488415
    21  C    0.255002
    22  C    0.020561
    23  N   -0.036098
    24  C    0.037096
    25  C    0.133739
    26  C    0.137725
    36  O   -0.502026
    37  C    0.273793
    38  C   -0.011881
    39  N   -0.031249
    40  C    0.030364
    41  C    0.132958
    42  C    0.137798
    52  O   -0.516398
    53  C    0.291777
    54  C    0.006796
    55  N   -0.035519
    56  C    0.035853
    57  C    0.131509
    58  C    0.135696
 Electronic spatial extent (au):  <R**2>=          15749.8994
 Charge=             -0.0000 electrons
 Dipole moment (field-independent basis, Debye):
    X=             -0.3078    Y=             20.2979    Z=              6.6374  Tot=             21.3578
 Quadrupole moment (field-independent basis, Debye-Ang):
   XX=           -119.7064   YY=           -196.1655   ZZ=           -220.4701
   XY=             -4.8131   XZ=             -1.6466   YZ=             -7.3026
 Traceless Quadrupole moment (field-independent basis, Debye-Ang):
   XX=             59.0743   YY=            -17.3848   ZZ=            -41.6895
   XY=             -4.8131   XZ=             -1.6466   YZ=             -7.3026
 Octapole moment (field-independent basis, Debye-Ang**2):
  XXX=             34.1557  YYY=            136.1536  ZZZ=            -42.0763  XYY=              8.9333
  XXY=           -138.4730  XXZ=             44.0174  XZZ=             23.0603  YZZ=             67.0480
  YYZ=             25.1226  XYZ=              1.5706
 Hexadecapole moment (field-independent basis, Debye-Ang**3):
 XXXX=          -8244.3298 YYYY=          -7382.0306 ZZZZ=          -3667.5029 XXXY=           -190.6772
 XXXZ=             -2.9655 YYYX=            -16.0605 YYYZ=            -72.1049 ZZZX=            -16.0493
 ZZZY=             79.5115 XXYY=          -2694.9056 XXZZ=          -2230.0301 YYZZ=          -1831.1839
 XXYZ=            -45.1159 YYXZ=            -32.8416 ZZXY=            -40.0606
 N-N= 3.209308768913D+03 E-N=-9.522694116792D+03  KE= 1.306454164963D+03
 Unable to Open any file for archive entry.
 1\1\GINC-MPCL046\SP\RCAM-B3LYP TD-FC\Gen\C20H36Cl2N4O4Pb1\EDBA4025\22-
 Nov-2020\0\\# cam-b3lyp/gen pseudo=read TD=NStates=10 Geom=Check Guess
 =Read empiricaldispersion=gd3bj SCRF=(read)\\PbCl2_nmp\\0,1\Pb,0,0.103
 5892025,-0.928578993,-0.4608718968\Cl,0,-0.2804709926,-3.2737659399,-1
 .8460739985\Cl,0,-0.2099076125,-1.9069337822,2.1270010684\O,0,0.103194
 4797,0.7564449367,-2.5375908673\C,0,0.3806010078,1.9635675792,-2.34889
 96566\C,0,1.7676710286,2.581182324,-2.2899498152\N,0,-0.5334140257,2.9
 439896333,-2.1151298833\C,0,1.5111159165,4.0935696225,-2.3775102855\C,
 0,0.0627152957,4.2568304358,-1.8718669837\C,0,-1.9499435496,2.69778601
 5,-1.944809887\H,0,-2.1147653429,1.6052689485,-1.9120043113\H,0,-2.299
 2164087,3.1450608677,-0.9906421374\H,0,-2.5377847019,3.1482766678,-2.7
 717806754\H,0,2.1929430112,2.277270204,-1.3095094422\H,0,2.41775511,2.
 1750984765,-3.0865956194\H,0,2.2233731235,4.6962304598,-1.7847821753\H
 ,0,1.5757597345,4.4285892532,-3.4314401149\H,0,-0.499879852,5.04453663
 95,-2.4124122326\H,0,0.0127036095,4.4907169304,-0.7843411496\O,0,0.906
 8603948,1.4757300453,0.6605404251\C,0,0.0886555857,2.1663480092,1.3141
 282713\C,0,-1.3127716291,1.7649493171,1.7360321878\N,0,0.3443462492,3.
 4141461126,1.7930619896\C,0,-1.9496603793,3.0782270135,2.2119988844\C,
 0,-0.74442847,3.9512933617,2.6122110668\C,0,1.6448918183,4.0482987605,
 1.7294681566\H,0,2.3063264642,3.4186493099,1.1071674505\H,0,2.08238910
 2,4.1479794226,2.7452429367\H,0,1.565487222,5.0593124244,1.2805144455\
 H,0,-1.2042437721,1.0083244583,2.5432813649\H,0,-1.8428724284,1.262555
 7119,0.9047421389\H,0,-2.6624834639,2.9472698903,3.0459455119\H,0,-2.4
 931548617,3.5599283213,1.373878231\H,0,-0.8924506569,5.028069774,2.396
 3503049\H,0,-0.4877598508,3.8516043885,3.6910989882\O,0,-2.4710600699,
 -0.3902799363,-0.5069082422\C,0,-3.3867204204,-1.1090822084,-0.0279123
 046\C,0,-3.3198468653,-2.5886340939,0.2921884108\N,0,-4.6107142066,-0.
 6416684085,0.3238398352\C,0,-4.7862020016,-2.9817529946,0.5237691166\C
 ,0,-5.4588663646,-1.6611066466,0.9458822544\C,0,-4.9781804339,0.758642
 8229,0.297099967\H,0,-4.1893095093,1.3138704367,-0.2411152963\H,0,-5.0
 713192922,1.1627772715,1.3276517852\H,0,-5.9476446225,0.8936418873,-0.
 2230883262\H,0,-2.6878017554,-2.6835690862,1.2031706259\H,0,-2.7965624
 431,-3.1388795738,-0.5126823232\H,0,-4.9162896276,-3.773072389,1.28395
 84357\H,0,-5.2364089341,-3.3392604662,-0.4235752541\H,0,-6.5025261171,
 -1.5644917353,0.5860831884\H,0,-5.4647558542,-1.5203344702,2.050457745
 1\O,0,2.5692878694,-1.4867624484,-0.5200522902\C,0,3.4128223166,-1.291
 1685395,0.3947432007\C,0,3.1989514238,-0.5837770986,1.7181701432\N,0,4
 .6927983353,-1.7335037277,0.3366814733\C,0,4.6223139054,-0.3693465929,
 2.2553746721\C,0,5.4540567847,-1.4633424783,1.5578475314\C,0,5.2084700
 469,-2.5642153698,-0.7315732443\H,0,4.422311452,-2.6560898507,-1.50244
 36\H,0,5.4711592184,-3.5731685224,-0.3497698596\H,0,6.1169841814,-2.10
 84754183,-1.1748359629\H,0,2.5794355888,-1.2555355918,2.3514189612\H,0
 ,2.6090666773,0.3397793621,1.5671090181\H,0,4.6924446511,-0.4357143871
 ,3.3560852699\H,0,4.9937450394,0.6287977366,1.9489029767\H,0,6.4827637
 949,-1.1379498116,1.3046385154\H,0,5.531046875,-2.3934542706,2.1649512
 871\\Version=ES64L-G16RevC.01\State=1-A\HF=-1337.2072052\RMSD=7.658e-0
 9\PG=C01 [X(C20H36Cl2N4O4Pb1)]\\@
 The archive entry for this job was punched.


 IF YOU GIVE A BOY AND A PIG EVERYTHING THEY WANT,
 YOU'LL GET A BAD BOY AND A GOOD PIG.
 Job cpu time:       1 days 14 hours 34 minutes 33.5 seconds.
 Elapsed time:       0 days  7 hours 43 minutes 55.0 seconds.
 File lengths (MBytes):  RWF=   8348 Int=      0 D2E=      0 Chk=    656 Scr=      1
 Normal termination of Gaussian 16 at Sun Nov 22 17:45:42 2020.
