 Entering Gaussian System, Link 0=g16
 Input=02-PbCl2_PC_22807841.com
 Output=02-PbCl2_PC_22807841.log
 Initial command:
 /cm/shared/uniol/software/gaussian/g16.c01/g16/l1.exe "/scratch/22807841_edba4025/Gau-14817.inp" -scrdir="/scratch/22807841_edba4025/"
 Entering Link 1 = /cm/shared/uniol/software/gaussian/g16.c01/g16/l1.exe PID=     14818.
  
 Copyright (c) 1988-2019, Gaussian, Inc.  All Rights Reserved.
  
 This is part of the Gaussian(R) 16 program.  It is based on
 the Gaussian(R) 09 system (copyright 2009, Gaussian, Inc.),
 the Gaussian(R) 03 system (copyright 2003, Gaussian, Inc.),
 the Gaussian(R) 98 system (copyright 1998, Gaussian, Inc.),
 the Gaussian(R) 94 system (copyright 1995, Gaussian, Inc.),
 the Gaussian 92(TM) system (copyright 1992, Gaussian, Inc.),
 the Gaussian 90(TM) system (copyright 1990, Gaussian, Inc.),
 the Gaussian 88(TM) system (copyright 1988, Gaussian, Inc.),
 the Gaussian 86(TM) system (copyright 1986, Carnegie Mellon
 University), and the Gaussian 82(TM) system (copyright 1983,
 Carnegie Mellon University). Gaussian is a federally registered
 trademark of Gaussian, Inc.
  
 This software contains proprietary and confidential information,
 including trade secrets, belonging to Gaussian, Inc.
  
 This software is provided under written license and may be
 used, copied, transmitted, or stored only in accord with that
 written license.
  
 The following legend is applicable only to US Government
 contracts under FAR:
  
                    RESTRICTED RIGHTS LEGEND
  
 Use, reproduction and disclosure by the US Government is
 subject to restrictions as set forth in subparagraphs (a)
 and (c) of the Commercial Computer Software - Restricted
 Rights clause in FAR 52.227-19.
  
 Gaussian, Inc.
 340 Quinnipiac St., Bldg. 40, Wallingford CT 06492
  
  
 ---------------------------------------------------------------
 Warning -- This program may not be used in any manner that
 competes with the business of Gaussian, Inc. or will provide
 assistance to any competitor of Gaussian, Inc.  The licensee
 of this program is prohibited from giving any competitor of
 Gaussian, Inc. access to this program.  By using this program,
 the user acknowledges that Gaussian, Inc. is engaged in the
 business of creating and licensing software in the field of
 computational chemistry and represents and warrants to the
 licensee that it is not a competitor of Gaussian, Inc. and that
 it will not use this program in any manner prohibited above.
 ---------------------------------------------------------------
  

 Cite this work as:
 Gaussian 16, Revision C.01,
 M. J. Frisch, G. W. Trucks, H. B. Schlegel, G. E. Scuseria, 
 M. A. Robb, J. R. Cheeseman, G. Scalmani, V. Barone, 
 G. A. Petersson, H. Nakatsuji, X. Li, M. Caricato, A. V. Marenich, 
 J. Bloino, B. G. Janesko, R. Gomperts, B. Mennucci, H. P. Hratchian, 
 J. V. Ortiz, A. F. Izmaylov, J. L. Sonnenberg, D. Williams-Young, 
 F. Ding, F. Lipparini, F. Egidi, J. Goings, B. Peng, A. Petrone, 
 T. Henderson, D. Ranasinghe, V. G. Zakrzewski, J. Gao, N. Rega, 
 G. Zheng, W. Liang, M. Hada, M. Ehara, K. Toyota, R. Fukuda, 
 J. Hasegawa, M. Ishida, T. Nakajima, Y. Honda, O. Kitao, H. Nakai, 
 T. Vreven, K. Throssell, J. A. Montgomery, Jr., J. E. Peralta, 
 F. Ogliaro, M. J. Bearpark, J. J. Heyd, E. N. Brothers, K. N. Kudin, 
 V. N. Staroverov, T. A. Keith, R. Kobayashi, J. Normand, 
 K. Raghavachari, A. P. Rendell, J. C. Burant, S. S. Iyengar, 
 J. Tomasi, M. Cossi, J. M. Millam, M. Klene, C. Adamo, R. Cammi, 
 J. W. Ochterski, R. L. Martin, K. Morokuma, O. Farkas, 
 J. B. Foresman, and D. J. Fox, Gaussian, Inc., Wallingford CT, 2019.
 
 ******************************************
 Gaussian 16:  ES64L-G16RevC.01  3-Jul-2019
                12-Nov-2020 
 ******************************************
 %oldChk=01-PbCl2_PC
 %chk=02-PbCl2_PC
 %mem=16GB
 %NProcShared=5
 Will use up to    5 processors via shared memory.
 Copying data from "01-PbCl2_PC.chk" to current chk file "02-PbCl2_PC.chk"
 IOpt=  2 FromEx=T IUOpen= 4 IOptOp= 5 NList=   0 IFRang= 0 IUIn= 4 IUOut= 2.
 ----------------------------------------------------------------------
 # cam-b3lyp/gen pseudo=read TD=NStates=10 Geom=Check Guess=Read empiri
 caldispersion=gd3bj SCRF=(read)
 ----------------------------------------------------------------------
 1/29=2,38=1,40=2,172=1/1;
 2/12=2,40=1/2;
 3/5=7,11=9,14=-4,16=1,17=8,25=1,30=1,70=2203,74=-40,116=-2,124=41/1,2,3,8;
 4/5=1/1;
 5/5=2,38=6/2;
 8/6=1,10=1,108=10/1;
 9/41=10,42=1,70=2/14;
 6/7=2,8=2,9=2,10=2/1;
 99/5=1,9=1/99;
 --------
 PbCl2_PC
 --------
 Structure from the checkpoint file:  "02-PbCl2_PC.chk"
 Charge =  0 Multiplicity = 1
 No Z-Matrix found in chk file; cartesian coordinates used.
  Pb                                                0.202085006939     -0.146390064899      0.293292517767
  Cl                                                1.854774746980      0.229770856820     -1.785716101572
  Cl                                               -0.368157500352     -2.613395808260     -0.599165976788
  O                                                 0.227757221478      2.679945320193      0.039314534971
  C                                                 1.346995940211      3.123276524338      0.248347313442
  O                                                 2.236919334601      2.556223591183      1.093993906853
  O                                                 1.833900008066      4.239947629755     -0.336716873020
  C                                                 3.535952761861      3.225671577373      0.933835152691
  C                                                 3.123481657811      4.546277944400      0.259412187865
  C                                                 4.462627718831      2.352481794416      0.109910219599
  H                                                 2.983970171627      5.376695537200      0.978414402679
  H                                                 3.810473477333      4.854067694316     -0.548968845960
  H                                                 4.049635234151      2.195851505741     -0.906371150786
  H                                                 4.594959181826      1.362121899246      0.584325252427
  H                                                 5.452759275651      2.843648299002      0.028617641468
  H                                                 3.924684942641      3.390446490853      1.955559818140
  O                                                -2.105722106246     -0.798469288494      1.903173573645
  C                                                -3.030744204515     -1.393142528911      1.374643088921
  O                                                -3.898359847698     -0.825291988999      0.498202708004
  O                                                -3.322238776149     -2.692958440215      1.601894959294
  C                                                -4.713374079681     -1.881445799660     -0.115584683302
  C                                                -4.540971077968     -3.033305950853      0.890505154776
  C                                                -4.195407362203     -2.166157839287     -1.513350966743
  H                                                -5.366525020509     -3.094820083037      1.625825599324
  H                                                -4.391374210779     -4.013953513184      0.404031484265
  H                                                -3.151265647161     -2.537650757783     -1.473556303068
  H                                                -4.223069242319     -1.245353139319     -2.126939387608
  H                                                -4.836067241201     -2.930834017144     -1.995933640323
  H                                                -5.751450345179     -1.501174189385     -0.130202165359
  O                                                 2.435725615952     -1.041173644231      1.522637678417
  C                                                 3.274309642608     -1.660679918713      0.877615229513
  O                                                 3.103992195837     -2.914803168765      0.422662734150
  O                                                 4.485438528615     -1.153915671439      0.557715429741
  C                                                 4.206830636031     -3.242048857226     -0.492893430489
  C                                                 5.260488975115     -2.185787794561     -0.111189297149
  C                                                 3.706543427022     -3.160451655078     -1.922861682118
  H                                                 6.018653739248     -2.563490586598      0.601370354601
  H                                                 5.754208772672     -1.728250810587     -0.987209127172
  H                                                 3.377001436563     -2.128862838522     -2.161940230432
  H                                                 2.850806544758     -3.846772246749     -2.069935120872
  H                                                 4.518937998158     -3.456144170533     -2.616082349830
  H                                                 4.534666483979     -4.263536386105     -0.226388411227
  O                                                -1.603349540434      0.474181154214     -1.316255740844
  C                                                -2.527071777599      1.209847450745     -0.964876515495
  O                                                -2.586972665651      1.831783444451      0.217176000105
  O                                                -3.584814408380      1.464332093543     -1.754677575789
  C                                                -3.734251713236      2.750713739680      0.213329806741
  C                                                -4.555219906911      2.224200653767     -0.977668891765
  C                                                -3.227663328204      4.172859397096      0.071089732596
  H                                                -5.363393860537      1.532396652763     -0.674280887585
  H                                                -4.955383436616      3.025945777412     -1.622937415729
  H                                                -2.716133473352      4.314203190118     -0.901792497214
  H                                                -2.515965295087      4.411749308102      0.883581957531
  H                                                -4.080067029207      4.877948284692      0.129653695633
  H                                                -4.255707579390      2.590873347116      1.174463133078
 Recover connectivity data from disk.
 Stoichiometry    C16H24Cl2O12Pb
 Framework group  C1[X(C16H24Cl2O12Pb)]
 Deg. of freedom   159
 Full point group                 C1      NOp   1
 Largest Abelian subgroup         C1      NOp   1
 Largest concise Abelian subgroup C1      NOp   1
                         Standard orientation:                         
 ---------------------------------------------------------------------
 Center     Atomic      Atomic             Coordinates (Angstroms)
 Number     Number       Type             X           Y           Z
 ---------------------------------------------------------------------
      1         82           0       -0.172973   -0.188512   -0.286917
      2         17           0       -1.813056    0.170014    1.805150
      3         17           0        0.402541   -2.662985    0.581152
      4          8           0       -0.196986    2.635570   -0.008859
      5          6           0       -1.317447    3.080648   -0.207363
      6          8           0       -2.212488    2.520772   -1.052390
      7          8           0       -1.800758    4.192320    0.390070
      8          6           0       -3.510501    3.188831   -0.878721
      9          6           0       -3.093904    4.503680   -0.195641
     10          6           0       -4.432220    2.308687   -0.056638
     11          1           0       -2.958703    5.340159   -0.908414
     12          1           0       -3.775986    4.804607    0.619454
     13          1           0       -4.013102    2.143457    0.955766
     14          1           0       -4.567459    1.322380   -0.538617
     15          1           0       -5.421820    2.799140    0.034792
     16          1           0       -3.905391    3.362251   -1.896646
     17          8           0        2.125037   -0.826916   -1.916178
     18          6           0        3.053209   -1.426038   -1.398301
     19          8           0        3.926129   -0.865626   -0.522341
     20          8           0        3.343267   -2.723881   -1.638312
     21          6           0        4.744789   -1.926935    0.077544
     22          6           0        4.566260   -3.070233   -0.937206
     23          6           0        4.235264   -2.223480    1.475952
     24          1           0        5.387354   -3.125511   -1.677996
     25          1           0        4.419562   -4.054967   -0.458162
     26          1           0        3.190885   -2.594630    1.439321
     27          1           0        4.266673   -1.307905    2.097140
     28          1           0        4.878794   -2.992212    1.948161
     29          1           0        5.782952   -1.546794    0.089110
     30          8           0       -2.414040   -1.072866   -1.510280
     31          6           0       -3.248739   -1.697820   -0.865473
     32          8           0       -3.075732   -2.955750   -0.422197
     33          8           0       -4.457891   -1.193792   -0.533981
     34          6           0       -4.173033   -3.290747    0.497201
     35          6           0       -5.228932   -2.231298    0.130830
     36          6           0       -3.664112   -3.221262    1.924760
     37          1           0       -5.991404   -2.602957   -0.580310
     38          1           0       -5.717330   -1.781201    1.013660
     39          1           0       -3.333086   -2.191733    2.170572
     40          1           0       -2.807533   -3.908797    2.060842
     41          1           0       -4.472317   -3.522821    2.620347
     42          1           0       -4.502518   -4.309943    0.224038
     43          8           0        1.642180    0.418416    1.316892
     44          6           0        2.563795    1.157038    0.966182
     45          8           0        2.616581    1.788965   -0.210900
     46          8           0        3.626301    1.404831    1.751706
     47          6           0        3.763903    2.707837   -0.206202
     48          6           0        4.592028    2.171261    0.975312
     49          6           0        3.258246    4.128724   -0.048863
     50          1           0        5.398324    1.482057    0.661198
     51          1           0        4.996118    2.967514    1.624919
     52          1           0        2.752609    4.261818    0.928254
     53          1           0        2.541663    4.374482   -0.854988
     54          1           0        4.110311    4.834289   -0.106602
     55          1           0        4.279535    2.556147   -1.171788
 ---------------------------------------------------------------------
 Rotational constants (GHZ):           0.1442298           0.0909336           0.0640007
 General basis read from cards:  (5D, 7F)
 ======================================================================================================
                                       Pseudopotential Parameters
 ======================================================================================================
  Center     Atomic      Valence      Angular      Power
  Number     Number     Electrons     Momentum     of R      Exponent        Coefficient   SO-Coeffient
 ======================================================================================================
    1         82            4
                                      G and up 
                                                     0      376.5803786       -0.17896050    0.00000000
                                                     1       86.4840014      -54.39723370    0.00000000
                                                     2       26.6784276     -199.70617590    0.00000000
                                                     2        9.4261986      -79.12239410    0.00000000
                                                     2        2.7101719      -24.98690200    0.00000000
                                                     2        0.8792031       -4.43979390    0.00000000
                                      S - G
                                                     0      132.4248796        2.81153860    0.00000000
                                                     1       47.2376044       65.03672050    0.00000000
                                                     2       17.6312727      212.78685450    0.00000000
                                                     2        5.4744712       72.10531750    0.00000000
                                                     2        1.2634856       33.01409400    0.00000000
                                                     2        0.7651447       -5.77084610    0.00000000
                                      P - G
                                                     0       67.8966454        4.87549110    0.00000000
                                                     1       24.9898225       63.91481020    0.00000000
                                                     2       10.7052939      148.10643580    0.00000000
                                                     2        3.2792568       47.31063010    0.00000000
                                                     2        0.8452522       21.03067020    0.00000000
                                                     2        0.6416245       -7.09307720    0.00000000
                                      D - G
                                                     0       68.8336005        3.21613880    0.00000000
                                                     1       24.2815874       55.73860860    0.00000000
                                                     2        9.4532762      121.41683510    0.00000000
                                                     2        2.4788185       19.34560640    0.00000000
                                                     2        2.4789161       15.36751680    0.00000000
                                                     2        0.5551738        6.12987240    0.00000000
                                      F - G
                                                     0      128.1021322        4.13536820    0.00000000
                                                     1       54.8029154       67.51284460    0.00000000
                                                     2       24.5529308      258.73731070    0.00000000
                                                     2        8.1144792      113.24782640    0.00000000
                                                     2        1.6931290       34.16802010    0.00000000
                                                     2        0.7670500       -6.55319560    0.00000000
    2         17            7
                                      D and up 
                                                     1       94.8130000      -10.00000000    0.00000000
                                                     2      165.6440000       66.27291700    0.00000000
                                                     2       30.8317000      -28.96859500    0.00000000
                                                     2       10.5841000      -12.86633700    0.00000000
                                                     2        3.7704000       -1.71021700    0.00000000
                                      S - D
                                                     0      128.8391000        3.00000000    0.00000000
                                                     1      120.3786000       12.85285100    0.00000000
                                                     2       63.5622000      275.67239800    0.00000000
                                                     2       18.0695000      115.67771200    0.00000000
                                                     2        3.8142000       35.06060900    0.00000000
                                      P - D
                                                     0      216.5263000        5.00000000    0.00000000
                                                     1       46.5723000        7.47948600    0.00000000
                                                     2      147.4685000      613.03200000    0.00000000
                                                     2       48.9869000      280.80068500    0.00000000
                                                     2       13.2096000      107.87882400    0.00000000
                                                     2        3.1831000       15.34395600    0.00000000
    3         17            7
                                      D and up 
                                                     1       94.8130000      -10.00000000    0.00000000
                                                     2      165.6440000       66.27291700    0.00000000
                                                     2       30.8317000      -28.96859500    0.00000000
                                                     2       10.5841000      -12.86633700    0.00000000
                                                     2        3.7704000       -1.71021700    0.00000000
                                      S - D
                                                     0      128.8391000        3.00000000    0.00000000
                                                     1      120.3786000       12.85285100    0.00000000
                                                     2       63.5622000      275.67239800    0.00000000
                                                     2       18.0695000      115.67771200    0.00000000
                                                     2        3.8142000       35.06060900    0.00000000
                                      P - D
                                                     0      216.5263000        5.00000000    0.00000000
                                                     1       46.5723000        7.47948600    0.00000000
                                                     2      147.4685000      613.03200000    0.00000000
                                                     2       48.9869000      280.80068500    0.00000000
                                                     2       13.2096000      107.87882400    0.00000000
                                                     2        3.1831000       15.34395600    0.00000000
    4          8
                                   No pseudopotential on this center.
    5          6
                                   No pseudopotential on this center.
    6          8
                                   No pseudopotential on this center.
    7          8
                                   No pseudopotential on this center.
    8          6
                                   No pseudopotential on this center.
    9          6
                                   No pseudopotential on this center.
   10          6
                                   No pseudopotential on this center.
   11          1
                                   No pseudopotential on this center.
   12          1
                                   No pseudopotential on this center.
   13          1
                                   No pseudopotential on this center.
   14          1
                                   No pseudopotential on this center.
   15          1
                                   No pseudopotential on this center.
   16          1
                                   No pseudopotential on this center.
   17          8
                                   No pseudopotential on this center.
   18          6
                                   No pseudopotential on this center.
   19          8
                                   No pseudopotential on this center.
   20          8
                                   No pseudopotential on this center.
   21          6
                                   No pseudopotential on this center.
   22          6
                                   No pseudopotential on this center.
   23          6
                                   No pseudopotential on this center.
   24          1
                                   No pseudopotential on this center.
   25          1
                                   No pseudopotential on this center.
   26          1
                                   No pseudopotential on this center.
   27          1
                                   No pseudopotential on this center.
   28          1
                                   No pseudopotential on this center.
   29          1
                                   No pseudopotential on this center.
   30          8
                                   No pseudopotential on this center.
   31          6
                                   No pseudopotential on this center.
   32          8
                                   No pseudopotential on this center.
   33          8
                                   No pseudopotential on this center.
   34          6
                                   No pseudopotential on this center.
   35          6
                                   No pseudopotential on this center.
   36          6
                                   No pseudopotential on this center.
   37          1
                                   No pseudopotential on this center.
   38          1
                                   No pseudopotential on this center.
   39          1
                                   No pseudopotential on this center.
   40          1
                                   No pseudopotential on this center.
   41          1
                                   No pseudopotential on this center.
   42          1
                                   No pseudopotential on this center.
   43          8
                                   No pseudopotential on this center.
   44          6
                                   No pseudopotential on this center.
   45          8
                                   No pseudopotential on this center.
   46          8
                                   No pseudopotential on this center.
   47          6
                                   No pseudopotential on this center.
   48          6
                                   No pseudopotential on this center.
   49          6
                                   No pseudopotential on this center.
   50          1
                                   No pseudopotential on this center.
   51          1
                                   No pseudopotential on this center.
   52          1
                                   No pseudopotential on this center.
   53          1
                                   No pseudopotential on this center.
   54          1
                                   No pseudopotential on this center.
   55          1
                                   No pseudopotential on this center.
 ======================================================================================================
 There are  1364 symmetry adapted cartesian basis functions of A   symmetry.
 There are  1200 symmetry adapted basis functions of A   symmetry.
  1200 basis functions,  1900 primitive gaussians,  1364 cartesian basis functions
   117 alpha electrons      117 beta electrons
       nuclear repulsion energy      3213.1887322281 Hartrees.
 NAtoms=   55 NActive=   55 NUniq=   55 SFac= 1.00D+00 NAtFMM=   60 NAOKFM=F Big=F
 Integral buffers will be    131072 words long.
 Raffenetti 1 integral format.
 Two-electron integral symmetry is turned on.
 Nuclear repulsion after empirical dispersion term =     3213.1270183177 Hartrees.
 Using the following non-standard input for PCM:
 eps=64.0
 --- end of non-standard input.
 ------------------------------------------------------------------------------
 Polarizable Continuum Model (PCM)
 =================================
 Model                : PCM.
 Atomic radii         : UFF (Universal Force Field).
 Polarization charges : Total charges.
 Charge compensation  : None.
 Solution method      : On-the-fly selection.
 Cavity type          : Scaled VdW (van der Waals Surface) (Alpha=1.100).
 Cavity algorithm     : GePol (No added spheres)
                        Default sphere list used, NSphG=   55.
                        Lebedev-Laikov grids with approx.  5.0 points / Ang**2.
                        Smoothing algorithm: York/Karplus (Gamma=1.0000).
                        Polarization charges: spherical gaussians, with
                                              point-specific exponents (IZeta= 3).
                        Self-potential: point-specific (ISelfS= 7).
                        Self-field    : sphere-specific E.n sum rule (ISelfD= 2).
 Solvent              : Water, Eps=  64.000000 Eps(inf)=   1.777849
 ------------------------------------------------------------------------------
 One-electron integrals computed using PRISM.
   1 Symmetry operations used in ECPInt.
 ECPInt:  NShTT=   95266 NPrTT=  366255 LenC2=   66145 LenP2D=  155699.
 LDataN:  DoStor=T MaxTD1= 7 Len=  274
 NBasis=  1200 RedAO= T EigKep=  4.11D-04  NBF=  1200
 NBsUse=  1200 1.00D-06 EigRej= -1.00D+00 NBFU=  1200
 Defaulting to unpruned grid for atomic number  82.
 Initial guess from the checkpoint file:  "02-PbCl2_PC.chk"
 B after Tr=    -0.000000   -0.000000    0.000000
         Rot=    1.000000   -0.000000   -0.000000    0.000000 Ang=   0.00 deg.
 Requested convergence on RMS density matrix=1.00D-08 within 128 cycles.
 Requested convergence on MAX density matrix=1.00D-06.
 Requested convergence on             energy=1.00D-06.
 No special actions if energy rises.
 Defaulting to unpruned grid for atomic number  82.
 Defaulting to unpruned grid for atomic number  82.
 Defaulting to unpruned grid for atomic number  82.
 Defaulting to unpruned grid for atomic number  82.
 Defaulting to unpruned grid for atomic number  82.
 Inv3:  Mode=1 IEnd=    54391692.
 Iteration    1 A*A^-1 deviation from unit magnitude is 4.44D-15 for   3569.
 Iteration    1 A*A^-1 deviation from orthogonality  is 1.89D-15 for   3026   1159.
 Iteration    1 A^-1*A deviation from unit magnitude is 4.22D-15 for   3569.
 Iteration    1 A^-1*A deviation from orthogonality  is 7.24D-15 for   3678   3608.
 Error on total polarization charges =  0.01536
 SCF Done:  E(RCAM-B3LYP) =  -1560.42798631     A.U. after   11 cycles
            NFock= 11  Conv=0.51D-08     -V/T= 2.0206
 DoSCS=F DFT=T ScalE2(SS,OS)=  1.000000  1.000000
 ExpMin= 5.98D-02 ExpMax= 1.53D+04 ExpMxC= 5.22D+02 IAcc=3 IRadAn=         5 AccDes= 0.00D+00
 HarFok:  IExCor=  205 AccDes= 0.00D+00 IRadAn=         5 IDoV=-2 UseB2=F ITyADJ=14
 ICtDFT= 12500011 ScaDFX=  1.000000  1.000000  1.000000  1.000000
 Defaulting to unpruned grid for atomic number  82.
 GSVD:  LWork=       -1008 too small for GESVD, short by        4340 words or        4340 for optimal perf.
 Range of M.O.s used for correlation:    29  1200
 NBasis=  1200 NAE=   117 NBE=   117 NFC=    28 NFV=     0
 NROrb=   1172 NOA=    89 NOB=    89 NVA=  1083 NVB=  1083

 **** Warning!!: The largest alpha MO coefficient is  0.11225621D+02

 NEqPCM:  Using non-equilibrium solvation (IEInf=1, Eps=  64.0000, EpsInf=   1.7778)
 Inv3:  Mode=1 IEnd=    54391692.
 Iteration    1 A*A^-1 deviation from unit magnitude is 3.33D-15 for   1088.
 Iteration    1 A*A^-1 deviation from orthogonality  is 1.56D-15 for   3404   2504.
 Iteration    1 A^-1*A deviation from unit magnitude is 3.55D-15 for   3756.
 Iteration    1 A^-1*A deviation from orthogonality  is 2.72D-15 for   2896   2862.
 Orbital symmetries:
       Occupied  (A) (A) (A) (A) (A) (A) (A) (A) (A) (A) (A) (A)
                 (A) (A) (A) (A) (A) (A) (A) (A) (A) (A) (A) (A)
                 (A) (A) (A) (A) (A) (A) (A) (A) (A) (A) (A) (A)
                 (A) (A) (A) (A) (A) (A) (A) (A) (A) (A) (A) (A)
                 (A) (A) (A) (A) (A) (A) (A) (A) (A) (A) (A) (A)
                 (A) (A) (A) (A) (A) (A) (A) (A) (A) (A) (A) (A)
                 (A) (A) (A) (A) (A) (A) (A) (A) (A) (A) (A) (A)
                 (A) (A) (A) (A) (A) (A) (A) (A) (A) (A) (A) (A)
                 (A) (A) (A) (A) (A) (A) (A) (A) (A) (A) (A) (A)
                 (A) (A) (A) (A) (A) (A) (A) (A) (A)
       Virtual   (A) (A) (A) (A) (A) (A) (A) (A) (A) (A) (A) (A)
                 (A) (A) (A) (A) (A) (A) (A) (A) (A) (A) (A) (A)
                 (A) (A) (A) (A) (A) (A) (A) (A) (A) (A) (A) (A)
                 (A) (A) (A) (A) (A) (A) (A) (A) (A) (A) (A) (A)
                 (A) (A) (A) (A) (A) (A) (A) (A) (A) (A) (A) (A)
                 (A) (A) (A) (A) (A) (A) (A) (A) (A) (A) (A) (A)
                 (A) (A) (A) (A) (A) (A) (A) (A) (A) (A) (A) (A)
                 (A) (A) (A) (A) (A) (A) (A) (A) (A) (A) (A) (A)
                 (A) (A) (A) (A) (A) (A) (A) (A) (A) (A) (A) (A)
                 (A) (A) (A) (A) (A) (A) (A) (A) (A) (A) (A) (A)
                 (A) (A) (A) (A) (A) (A) (A) (A) (A) (A) (A) (A)
                 (A) (A) (A) (A) (A) (A) (A) (A) (A) (A) (A) (A)
                 (A) (A) (A) (A) (A) (A) (A) (A) (A) (A) (A) (A)
                 (A) (A) (A) (A) (A) (A) (A) (A) (A) (A) (A) (A)
                 (A) (A) (A) (A) (A) (A) (A) (A) (A) (A) (A) (A)
                 (A) (A) (A) (A) (A) (A) (A) (A) (A) (A) (A) (A)
                 (A) (A) (A) (A) (A) (A) (A) (A) (A) (A) (A) (A)
                 (A) (A) (A) (A) (A) (A) (A) (A) (A) (A) (A) (A)
                 (A) (A) (A) (A) (A) (A) (A) (A) (A) (A) (A) (A)
                 (A) (A) (A) (A) (A) (A) (A) (A) (A) (A) (A) (A)
                 (A) (A) (A) (A) (A) (A) (A) (A) (A) (A) (A) (A)
                 (A) (A) (A) (A) (A) (A) (A) (A) (A) (A) (A) (A)
                 (A) (A) (A) (A) (A) (A) (A) (A) (A) (A) (A) (A)
                 (A) (A) (A) (A) (A) (A) (A) (A) (A) (A) (A) (A)
                 (A) (A) (A) (A) (A) (A) (A) (A) (A) (A) (A) (A)
                 (A) (A) (A) (A) (A) (A) (A) (A) (A) (A) (A) (A)
                 (A) (A) (A) (A) (A) (A) (A) (A) (A) (A) (A) (A)
                 (A) (A) (A) (A) (A) (A) (A) (A) (A) (A) (A) (A)
                 (A) (A) (A) (A) (A) (A) (A) (A) (A) (A) (A) (A)
                 (A) (A) (A) (A) (A) (A) (A) (A) (A) (A) (A) (A)
                 (A) (A) (A) (A) (A) (A) (A) (A) (A) (A) (A) (A)
                 (A) (A) (A) (A) (A) (A) (A) (A) (A) (A) (A) (A)
                 (A) (A) (A) (A) (A) (A) (A) (A) (A) (A) (A) (A)
                 (A) (A) (A) (A) (A) (A) (A) (A) (A) (A) (A) (A)
                 (A) (A) (A) (A) (A) (A) (A) (A) (A) (A) (A) (A)
                 (A) (A) (A) (A) (A) (A) (A) (A) (A) (A) (A) (A)
                 (A) (A) (A) (A) (A) (A) (A) (A) (A) (A) (A) (A)
                 (A) (A) (A) (A) (A) (A) (A) (A) (A) (A) (A) (A)
                 (A) (A) (A) (A) (A) (A) (A) (A) (A) (A) (A) (A)
                 (A) (A) (A) (A) (A) (A) (A) (A) (A) (A) (A) (A)
                 (A) (A) (A) (A) (A) (A) (A) (A) (A) (A) (A) (A)
                 (A) (A) (A) (A) (A) (A) (A) (A) (A) (A) (A) (A)
                 (A) (A) (A) (A) (A) (A) (A) (A) (A) (A) (A) (A)
                 (A) (A) (A) (A) (A) (A) (A) (A) (A) (A) (A) (A)
                 (A) (A) (A) (A) (A) (A) (A) (A) (A) (A) (A) (A)
                 (A) (A) (A) (A) (A) (A) (A) (A) (A) (A) (A) (A)
                 (A) (A) (A) (A) (A) (A) (A) (A) (A) (A) (A) (A)
                 (A) (A) (A) (A) (A) (A) (A) (A) (A) (A) (A) (A)
                 (A) (A) (A) (A) (A) (A) (A) (A) (A) (A) (A) (A)
                 (A) (A) (A) (A) (A) (A) (A) (A) (A) (A) (A) (A)
                 (A) (A) (A) (A) (A) (A) (A) (A) (A) (A) (A) (A)
                 (A) (A) (A) (A) (A) (A) (A) (A) (A) (A) (A) (A)
                 (A) (A) (A) (A) (A) (A) (A) (A) (A) (A) (A) (A)
                 (A) (A) (A) (A) (A) (A) (A) (A) (A) (A) (A) (A)
                 (A) (A) (A) (A) (A) (A) (A) (A) (A) (A) (A) (A)
                 (A) (A) (A) (A) (A) (A) (A) (A) (A) (A) (A) (A)
                 (A) (A) (A) (A) (A) (A) (A) (A) (A) (A) (A) (A)
                 (A) (A) (A) (A) (A) (A) (A) (A) (A) (A) (A) (A)
                 (A) (A) (A) (A) (A) (A) (A) (A) (A) (A) (A) (A)
                 (A) (A) (A) (A) (A) (A) (A) (A) (A) (A) (A) (A)
                 (A) (A) (A) (A) (A) (A) (A) (A) (A) (A) (A) (A)
                 (A) (A) (A) (A) (A) (A) (A) (A) (A) (A) (A) (A)
                 (A) (A) (A) (A) (A) (A) (A) (A) (A) (A) (A) (A)
                 (A) (A) (A) (A) (A) (A) (A) (A) (A) (A) (A) (A)
                 (A) (A) (A) (A) (A) (A) (A) (A) (A) (A) (A) (A)
                 (A) (A) (A) (A) (A) (A) (A) (A) (A) (A) (A) (A)
                 (A) (A) (A) (A) (A) (A) (A) (A) (A) (A) (A) (A)
                 (A) (A) (A) (A) (A) (A) (A) (A) (A) (A) (A) (A)
                 (A) (A) (A) (A) (A) (A) (A) (A) (A) (A) (A) (A)
                 (A) (A) (A) (A) (A) (A) (A) (A) (A) (A) (A) (A)
                 (A) (A) (A) (A) (A) (A) (A) (A) (A) (A) (A) (A)
                 (A) (A) (A) (A) (A) (A) (A) (A) (A) (A) (A) (A)
                 (A) (A) (A) (A) (A) (A) (A) (A) (A) (A) (A) (A)
                 (A) (A) (A) (A) (A) (A) (A) (A) (A) (A) (A) (A)
                 (A) (A) (A) (A) (A) (A) (A) (A) (A) (A) (A) (A)
                 (A) (A) (A) (A) (A) (A) (A) (A) (A) (A) (A) (A)
                 (A) (A) (A) (A) (A) (A) (A) (A) (A) (A) (A) (A)
                 (A) (A) (A) (A) (A) (A) (A) (A) (A) (A) (A) (A)
                 (A) (A) (A) (A) (A) (A) (A) (A) (A) (A) (A) (A)
                 (A) (A) (A) (A) (A) (A) (A) (A) (A) (A) (A) (A)
                 (A) (A) (A) (A) (A) (A) (A) (A) (A) (A) (A) (A)
                 (A) (A) (A) (A) (A) (A) (A) (A) (A) (A) (A) (A)
                 (A) (A) (A) (A) (A) (A) (A) (A) (A) (A) (A) (A)
                 (A) (A) (A) (A) (A) (A) (A) (A) (A) (A) (A) (A)
                 (A) (A) (A) (A) (A) (A) (A) (A) (A) (A) (A) (A)
                 (A) (A) (A) (A) (A) (A) (A) (A) (A) (A) (A) (A)
                 (A) (A) (A) (A) (A) (A) (A) (A) (A) (A) (A) (A)
                 (A) (A) (A) (A) (A) (A) (A) (A) (A) (A) (A) (A)
                 (A) (A) (A) (A) (A) (A) (A) (A) (A) (A) (A) (A)
                 (A) (A) (A) (A) (A) (A) (A) (A) (A) (A) (A) (A)
                 (A) (A) (A)
    40 initial guesses have been made.
 Convergence on wavefunction:    0.001000000000000
 Iteration     1 Dimension    40 NMult     0 NNew     40
 CISAX will form    40 AO SS matrices at one time.
 Defaulting to unpruned grid for atomic number  82.
 Defaulting to unpruned grid for atomic number  82.
 Defaulting to unpruned grid for atomic number  82.
 Defaulting to unpruned grid for atomic number  82.
 Defaulting to unpruned grid for atomic number  82.
 New state      2 was old state      5
 New state      4 was old state      8
 New state      5 was old state      4
 New state      6 was old state      7
 New state      7 was old state      6
 New state      8 was old state     12
 New state      9 was old state     11
 Iteration     2 Dimension    60 NMult    40 NNew     20
 New state      5 was old state      6
 New state      6 was old state      5
 Iteration     3 Dimension    80 NMult    60 NNew     20
 Iteration     4 Dimension   100 NMult    80 NNew     20
 Iteration     5 Dimension   120 NMult   100 NNew     20
 Iteration     6 Dimension   140 NMult   120 NNew     20
 Iteration     7 Dimension   160 NMult   140 NNew     20
 Iteration     8 Dimension   178 NMult   160 NNew     18
 Iteration     9 Dimension   184 NMult   178 NNew      6
 Iteration    10 Dimension   188 NMult   184 NNew      4
 Iteration    11 Dimension   190 NMult   188 NNew      2
 ***********************************************************************
 Excited states from <AA,BB:AA,BB> singles matrix:
 ***********************************************************************
 
 Ground to excited state transition densities written to RWF  633
 Ground to excited state transition electric dipole moments (Au):
       state          X           Y           Z        Dip. S.      Osc.
         1        -0.8786     -0.3648     -0.3819      1.0508      0.1646
         2         0.8638     -0.0668     -0.5107      1.0115      0.1606
         3        -0.3364     -0.6425      0.4954      0.7714      0.1248
         4        -0.4870      0.5371      0.0790      0.5319      0.0877
         5        -0.2462      0.2237      0.0588      0.1141      0.0189
         6         0.6104     -0.4494     -0.0294      0.5754      0.0957
         7        -0.3880     -0.1856     -0.0143      0.1852      0.0310
         8        -0.0472      0.6388      0.0239      0.4108      0.0691
         9         0.3907     -0.2452      0.0508      0.2153      0.0368
        10         0.0720     -0.1732      0.0534      0.0380      0.0065
 Ground to excited state transition velocity dipole moments (Au):
       state          X           Y           Z        Dip. S.      Osc.
         1         0.1828      0.0756      0.0709      0.0442      0.1253
         2        -0.1625     -0.0177      0.1002      0.0368      0.1029
         3         0.0789      0.1152     -0.1288      0.0361      0.0991
         4         0.1093     -0.1384     -0.0061      0.0311      0.0839
         5         0.0467     -0.0673      0.0278      0.0075      0.0201
         6        -0.1700      0.0873     -0.0062      0.0365      0.0977
         7         0.1413      0.0723      0.0197      0.0256      0.0679
         8        -0.0134     -0.1614     -0.0518      0.0289      0.0763
         9        -0.1002      0.0523     -0.0222      0.0133      0.0345
        10        -0.0159      0.0373     -0.0077      0.0017      0.0044
 Ground to excited state transition magnetic dipole moments (Au):
       state          X           Y           Z
         1         0.4979     -0.8949     -0.1159
         2         0.6526      0.7463      0.5017
         3         0.6116     -0.2395      0.2303
         4        -0.2985     -0.0480      0.0909
         5        -0.2377      0.0893     -0.2054
         6         0.2414     -0.2317      0.2444
         7        -0.0602      0.1273      0.4191
         8        -0.0424     -0.0802     -0.1975
         9         0.6651      0.1077     -0.3511
        10         0.7414     -0.2493      0.0730
 Ground to excited state transition velocity quadrupole moments (Au):
       state          XX          YY          ZZ          XY          XZ          YZ
         1        -0.0043      0.2130     -0.0262     -0.2716     -0.0202     -0.0031
         2        -0.1313      0.1313      0.1540      0.4641     -0.1555     -0.1853
         3        -0.0666      0.0454     -0.1432     -0.3626      0.1596      0.2065
         4         0.2606     -0.1376     -0.0701      0.1020      0.0806     -0.2704
         5        -0.3807     -0.0634      0.1144      0.3147      0.0349     -0.1004
         6         0.1282     -0.0711     -0.0468      0.1192     -0.1258     -0.0824
         7        -0.0304     -0.0730      0.1088     -0.4795      0.1555      0.0976
         8         0.1084      0.3396     -0.1771      0.1693     -0.0986      0.1481
         9         0.2037      0.0943     -0.0580      0.1055      0.0128      0.0557
        10        -0.1099     -0.0748      0.0015      0.0844      0.0616     -0.0272
 <0|del|b> * <b|rxdel|0> + <0|del|b> * <b|delr+rdel|0>
 Rotatory Strengths (R) in cgs (10**-40 erg-esu-cm/Gauss)
       state          XX          YY          ZZ    R(velocity)    E-M Angle
         1      -140.8334    152.6974     33.7128     15.1923       85.99
         2       119.9767   -107.1377   -217.6366    -68.2658      108.89
         3       -42.1730    -17.1269     33.1548     -8.7150       93.89
         4        23.7664    -88.8317    -10.8440    -25.3031      118.45
         5        -0.8933    -43.0534    -21.0374    -21.6614      143.84
         6       -16.3197    -39.4221   -122.2857    -59.3425      142.43
         7        -4.5455     32.3227     -2.5907      8.3955       82.73
         8        -2.1070     24.6524     44.0115     22.1856       49.99
         9        14.3366    -85.5436    -75.4279    -48.8783      127.46
        10       -17.5671    -15.4204    -26.3231    -19.7702      131.85
 1/2[<0|r|b>*<b|rxdel|0> + (<0|rxdel|b>*<b|r|0>)*]
 Rotatory Strengths (R) in cgs (10**-40 erg-esu-cm/Gauss)
       state          XX          YY          ZZ     R(length)
         1       309.3241   -230.8577    -31.2879     15.7262
         2      -398.6169     35.2658    181.2212    -60.7100
         3       145.5096   -108.8349    -80.6714    -14.6656
         4      -102.8129     18.2486     -5.0747    -29.8796
         5       -41.3799    -14.1227      8.5412    -15.6538
         6      -104.2054    -73.6230      5.0815    -57.5823
         7       -16.5208     16.7037      4.2462      1.4763
         8        -1.4137     36.2502      3.3378     12.7248
         9      -183.7376     18.6760     12.6095    -50.8173
        10       -37.7279    -30.5326     -2.7549    -23.6718
  1/2[<0|del|b>*<b|r|0> + (<0|r|b>*<b|del|0>)*] (Au)
       state          X           Y           Z        Dip. S.   Osc.(frdel)
         1        -0.1606     -0.0276     -0.0271      0.2153      0.1435
         2        -0.1404      0.0012     -0.0512      0.1904      0.1269
         3        -0.0266     -0.0740     -0.0638      0.1644      0.1096
         4        -0.0532     -0.0743     -0.0005      0.1281      0.0854
         5        -0.0115     -0.0151      0.0016      0.0249      0.0166
         6        -0.1037     -0.0392      0.0002      0.1428      0.0952
         7        -0.0548     -0.0134     -0.0003      0.0685      0.0457
         8         0.0006     -0.1031     -0.0012      0.1037      0.0691
         9        -0.0391     -0.0128     -0.0011      0.0531      0.0354
        10        -0.0011     -0.0065     -0.0004      0.0080      0.0053

 Excitation energies and oscillator strengths:
 
 Excited State   1:      Singlet-A      6.3953 eV  193.87 nm  f=0.1646  <S**2>=0.000
     117 -> 118        0.51874
     117 -> 119        0.44671
 This state for optimization and/or second-order correction.
 Total Energy, E(TD-HF/TD-DFT) =  -1560.19296188    
 Copying the excited state density for this state as the 1-particle RhoCI density.
 
 Excited State   2:      Singlet-A      6.4819 eV  191.28 nm  f=0.1606  <S**2>=0.000
     116 -> 119       -0.27797
     116 -> 120        0.16632
     117 -> 118       -0.37607
     117 -> 119        0.44928
 
 Excited State   3:      Singlet-A      6.6058 eV  187.69 nm  f=0.1248  <S**2>=0.000
     116 -> 119       -0.28707
     116 -> 120        0.21532
     117 -> 118        0.12435
     117 -> 119       -0.19255
     117 -> 120        0.50254
 
 Excited State   4:      Singlet-A      6.7290 eV  184.25 nm  f=0.0877  <S**2>=0.000
     113 -> 119       -0.10586
     114 -> 118        0.11399
     114 -> 119       -0.18762
     115 -> 119        0.38291
     115 -> 120       -0.25758
     116 -> 118        0.17518
     116 -> 119       -0.30268
     117 -> 120       -0.18942
 
 Excited State   5:      Singlet-A      6.7525 eV  183.61 nm  f=0.0189  <S**2>=0.000
     113 -> 119       -0.15717
     114 -> 119        0.11370
     115 -> 118        0.13696
     115 -> 119       -0.25802
     115 -> 120        0.20581
     116 -> 118        0.42315
     116 -> 119       -0.14220
     116 -> 120       -0.23752
 
 Excited State   6:      Singlet-A      6.7856 eV  182.72 nm  f=0.0957  <S**2>=0.000
     114 -> 119       -0.21311
     115 -> 118       -0.28471
     115 -> 119        0.12461
     116 -> 118        0.36764
     116 -> 119        0.27897
     116 -> 120       -0.13776
     117 -> 118       -0.10724
     117 -> 120        0.20467
 
 Excited State   7:      Singlet-A      6.8332 eV  181.44 nm  f=0.0310  <S**2>=0.000
     114 -> 119        0.27829
     114 -> 120       -0.18914
     115 -> 118        0.19661
     115 -> 120       -0.27491
     116 -> 118        0.28332
     116 -> 119        0.23708
     116 -> 120        0.29205
 
 Excited State   8:      Singlet-A      6.8668 eV  180.56 nm  f=0.0691  <S**2>=0.000
     113 -> 120       -0.13693
     114 -> 118        0.10076
     114 -> 119       -0.19213
     114 -> 120        0.15578
     115 -> 120        0.35794
     116 -> 118        0.13833
     116 -> 119        0.13150
     116 -> 120        0.37247
     117 -> 120       -0.19976
 
 Excited State   9:      Singlet-A      6.9826 eV  177.56 nm  f=0.0368  <S**2>=0.000
     102 -> 118       -0.11196
     102 -> 124        0.12175
     103 -> 122        0.12792
     103 -> 123        0.14586
     104 -> 118       -0.12601
     104 -> 124        0.11291
     107 -> 118        0.10285
     112 -> 119       -0.11006
     113 -> 119        0.13198
     115 -> 118        0.34180
     115 -> 119        0.11415
     117 -> 122        0.13721
     117 -> 123        0.14210
 
 Excited State  10:      Singlet-A      7.0103 eV  176.86 nm  f=0.0065  <S**2>=0.000
     105 -> 119       -0.12893
     105 -> 123        0.10625
     105 -> 126        0.10963
     106 -> 119        0.10593
     106 -> 121        0.11425
     107 -> 119        0.10073
     109 -> 118       -0.11617
     111 -> 118        0.12798
     111 -> 119       -0.14242
     111 -> 121       -0.12275
     111 -> 123        0.12915
     111 -> 126        0.12396
     117 -> 121        0.15302
 SavETr:  write IOETrn=   770 NScale= 10 NData=  16 NLR=1 NState=   10 LETran=     190.

 **********************************************************************

            Population analysis using the SCF Density.

 **********************************************************************

 Orbital symmetries:
       Occupied  (A) (A) (A) (A) (A) (A) (A) (A) (A) (A) (A) (A)
                 (A) (A) (A) (A) (A) (A) (A) (A) (A) (A) (A) (A)
                 (A) (A) (A) (A) (A) (A) (A) (A) (A) (A) (A) (A)
                 (A) (A) (A) (A) (A) (A) (A) (A) (A) (A) (A) (A)
                 (A) (A) (A) (A) (A) (A) (A) (A) (A) (A) (A) (A)
                 (A) (A) (A) (A) (A) (A) (A) (A) (A) (A) (A) (A)
                 (A) (A) (A) (A) (A) (A) (A) (A) (A) (A) (A) (A)
                 (A) (A) (A) (A) (A) (A) (A) (A) (A) (A) (A) (A)
                 (A) (A) (A) (A) (A) (A) (A) (A) (A) (A) (A) (A)
                 (A) (A) (A) (A) (A) (A) (A) (A) (A)
       Virtual   (A) (A) (A) (A) (A) (A) (A) (A) (A) (A) (A) (A)
                 (A) (A) (A) (A) (A) (A) (A) (A) (A) (A) (A) (A)
                 (A) (A) (A) (A) (A) (A) (A) (A) (A) (A) (A) (A)
                 (A) (A) (A) (A) (A) (A) (A) (A) (A) (A) (A) (A)
                 (A) (A) (A) (A) (A) (A) (A) (A) (A) (A) (A) (A)
                 (A) (A) (A) (A) (A) (A) (A) (A) (A) (A) (A) (A)
                 (A) (A) (A) (A) (A) (A) (A) (A) (A) (A) (A) (A)
                 (A) (A) (A) (A) (A) (A) (A) (A) (A) (A) (A) (A)
                 (A) (A) (A) (A) (A) (A) (A) (A) (A) (A) (A) (A)
                 (A) (A) (A) (A) (A) (A) (A) (A) (A) (A) (A) (A)
                 (A) (A) (A) (A) (A) (A) (A) (A) (A) (A) (A) (A)
                 (A) (A) (A) (A) (A) (A) (A) (A) (A) (A) (A) (A)
                 (A) (A) (A) (A) (A) (A) (A) (A) (A) (A) (A) (A)
                 (A) (A) (A) (A) (A) (A) (A) (A) (A) (A) (A) (A)
                 (A) (A) (A) (A) (A) (A) (A) (A) (A) (A) (A) (A)
                 (A) (A) (A) (A) (A) (A) (A) (A) (A) (A) (A) (A)
                 (A) (A) (A) (A) (A) (A) (A) (A) (A) (A) (A) (A)
                 (A) (A) (A) (A) (A) (A) (A) (A) (A) (A) (A) (A)
                 (A) (A) (A) (A) (A) (A) (A) (A) (A) (A) (A) (A)
                 (A) (A) (A) (A) (A) (A) (A) (A) (A) (A) (A) (A)
                 (A) (A) (A) (A) (A) (A) (A) (A) (A) (A) (A) (A)
                 (A) (A) (A) (A) (A) (A) (A) (A) (A) (A) (A) (A)
                 (A) (A) (A) (A) (A) (A) (A) (A) (A) (A) (A) (A)
                 (A) (A) (A) (A) (A) (A) (A) (A) (A) (A) (A) (A)
                 (A) (A) (A) (A) (A) (A) (A) (A) (A) (A) (A) (A)
                 (A) (A) (A) (A) (A) (A) (A) (A) (A) (A) (A) (A)
                 (A) (A) (A) (A) (A) (A) (A) (A) (A) (A) (A) (A)
                 (A) (A) (A) (A) (A) (A) (A) (A) (A) (A) (A) (A)
                 (A) (A) (A) (A) (A) (A) (A) (A) (A) (A) (A) (A)
                 (A) (A) (A) (A) (A) (A) (A) (A) (A) (A) (A) (A)
                 (A) (A) (A) (A) (A) (A) (A) (A) (A) (A) (A) (A)
                 (A) (A) (A) (A) (A) (A) (A) (A) (A) (A) (A) (A)
                 (A) (A) (A) (A) (A) (A) (A) (A) (A) (A) (A) (A)
                 (A) (A) (A) (A) (A) (A) (A) (A) (A) (A) (A) (A)
                 (A) (A) (A) (A) (A) (A) (A) (A) (A) (A) (A) (A)
                 (A) (A) (A) (A) (A) (A) (A) (A) (A) (A) (A) (A)
                 (A) (A) (A) (A) (A) (A) (A) (A) (A) (A) (A) (A)
                 (A) (A) (A) (A) (A) (A) (A) (A) (A) (A) (A) (A)
                 (A) (A) (A) (A) (A) (A) (A) (A) (A) (A) (A) (A)
                 (A) (A) (A) (A) (A) (A) (A) (A) (A) (A) (A) (A)
                 (A) (A) (A) (A) (A) (A) (A) (A) (A) (A) (A) (A)
                 (A) (A) (A) (A) (A) (A) (A) (A) (A) (A) (A) (A)
                 (A) (A) (A) (A) (A) (A) (A) (A) (A) (A) (A) (A)
                 (A) (A) (A) (A) (A) (A) (A) (A) (A) (A) (A) (A)
                 (A) (A) (A) (A) (A) (A) (A) (A) (A) (A) (A) (A)
                 (A) (A) (A) (A) (A) (A) (A) (A) (A) (A) (A) (A)
                 (A) (A) (A) (A) (A) (A) (A) (A) (A) (A) (A) (A)
                 (A) (A) (A) (A) (A) (A) (A) (A) (A) (A) (A) (A)
                 (A) (A) (A) (A) (A) (A) (A) (A) (A) (A) (A) (A)
                 (A) (A) (A) (A) (A) (A) (A) (A) (A) (A) (A) (A)
                 (A) (A) (A) (A) (A) (A) (A) (A) (A) (A) (A) (A)
                 (A) (A) (A) (A) (A) (A) (A) (A) (A) (A) (A) (A)
                 (A) (A) (A) (A) (A) (A) (A) (A) (A) (A) (A) (A)
                 (A) (A) (A) (A) (A) (A) (A) (A) (A) (A) (A) (A)
                 (A) (A) (A) (A) (A) (A) (A) (A) (A) (A) (A) (A)
                 (A) (A) (A) (A) (A) (A) (A) (A) (A) (A) (A) (A)
                 (A) (A) (A) (A) (A) (A) (A) (A) (A) (A) (A) (A)
                 (A) (A) (A) (A) (A) (A) (A) (A) (A) (A) (A) (A)
                 (A) (A) (A) (A) (A) (A) (A) (A) (A) (A) (A) (A)
                 (A) (A) (A) (A) (A) (A) (A) (A) (A) (A) (A) (A)
                 (A) (A) (A) (A) (A) (A) (A) (A) (A) (A) (A) (A)
                 (A) (A) (A) (A) (A) (A) (A) (A) (A) (A) (A) (A)
                 (A) (A) (A) (A) (A) (A) (A) (A) (A) (A) (A) (A)
                 (A) (A) (A) (A) (A) (A) (A) (A) (A) (A) (A) (A)
                 (A) (A) (A) (A) (A) (A) (A) (A) (A) (A) (A) (A)
                 (A) (A) (A) (A) (A) (A) (A) (A) (A) (A) (A) (A)
                 (A) (A) (A) (A) (A) (A) (A) (A) (A) (A) (A) (A)
                 (A) (A) (A) (A) (A) (A) (A) (A) (A) (A) (A) (A)
                 (A) (A) (A) (A) (A) (A) (A) (A) (A) (A) (A) (A)
                 (A) (A) (A) (A) (A) (A) (A) (A) (A) (A) (A) (A)
                 (A) (A) (A) (A) (A) (A) (A) (A) (A) (A) (A) (A)
                 (A) (A) (A) (A) (A) (A) (A) (A) (A) (A) (A) (A)
                 (A) (A) (A) (A) (A) (A) (A) (A) (A) (A) (A) (A)
                 (A) (A) (A) (A) (A) (A) (A) (A) (A) (A) (A) (A)
                 (A) (A) (A) (A) (A) (A) (A) (A) (A) (A) (A) (A)
                 (A) (A) (A) (A) (A) (A) (A) (A) (A) (A) (A) (A)
                 (A) (A) (A) (A) (A) (A) (A) (A) (A) (A) (A) (A)
                 (A) (A) (A) (A) (A) (A) (A) (A) (A) (A) (A) (A)
                 (A) (A) (A) (A) (A) (A) (A) (A) (A) (A) (A) (A)
                 (A) (A) (A) (A) (A) (A) (A) (A) (A) (A) (A) (A)
                 (A) (A) (A) (A) (A) (A) (A) (A) (A) (A) (A) (A)
                 (A) (A) (A) (A) (A) (A) (A) (A) (A) (A) (A) (A)
                 (A) (A) (A) (A) (A) (A) (A) (A) (A) (A) (A) (A)
                 (A) (A) (A) (A) (A) (A) (A) (A) (A) (A) (A) (A)
                 (A) (A) (A) (A) (A) (A) (A) (A) (A) (A) (A) (A)
                 (A) (A) (A) (A) (A) (A) (A) (A) (A) (A) (A) (A)
                 (A) (A) (A) (A) (A) (A) (A) (A) (A) (A) (A) (A)
                 (A) (A) (A) (A) (A) (A) (A) (A) (A) (A) (A) (A)
                 (A) (A) (A) (A) (A) (A) (A) (A) (A) (A) (A) (A)
                 (A) (A) (A) (A) (A) (A) (A) (A) (A) (A) (A) (A)
                 (A) (A) (A)
 The electronic state is 1-A.
 Alpha  occ. eigenvalues --  -19.28360 -19.27921 -19.27794 -19.27572 -19.27459
 Alpha  occ. eigenvalues --  -19.27455 -19.27352 -19.27325 -19.22705 -19.21560
 Alpha  occ. eigenvalues --  -19.21188 -19.21050 -10.46177 -10.45439 -10.45005
 Alpha  occ. eigenvalues --  -10.44976 -10.34227 -10.33792 -10.33720 -10.33709
 Alpha  occ. eigenvalues --  -10.33440 -10.33081 -10.32983 -10.32939 -10.25717
 Alpha  occ. eigenvalues --  -10.25075 -10.25066 -10.24971  -1.26368  -1.25518
 Alpha  occ. eigenvalues --   -1.25236  -1.25096  -1.14940  -1.14321  -1.14207
 Alpha  occ. eigenvalues --   -1.13997  -1.13890  -1.13478  -1.13188  -1.13163
 Alpha  occ. eigenvalues --   -0.89426  -0.88909  -0.88774  -0.88767  -0.81406
 Alpha  occ. eigenvalues --   -0.80391  -0.80256  -0.79838  -0.79725  -0.79711
 Alpha  occ. eigenvalues --   -0.73393  -0.72770  -0.72630  -0.72606  -0.69980
 Alpha  occ. eigenvalues --   -0.69365  -0.69230  -0.69084  -0.62699  -0.62053
 Alpha  occ. eigenvalues --   -0.61571  -0.61552  -0.61255  -0.59800  -0.59549
 Alpha  occ. eigenvalues --   -0.59309  -0.58241  -0.57510  -0.57480  -0.57317
 Alpha  occ. eigenvalues --   -0.57015  -0.54857  -0.54118  -0.53921  -0.53214
 Alpha  occ. eigenvalues --   -0.52986  -0.52615  -0.52428  -0.50563  -0.49948
 Alpha  occ. eigenvalues --   -0.49876  -0.49820  -0.49663  -0.48971  -0.48656
 Alpha  occ. eigenvalues --   -0.48221  -0.47965  -0.47149  -0.46826  -0.46484
 Alpha  occ. eigenvalues --   -0.46333  -0.46045  -0.45787  -0.45548  -0.45523
 Alpha  occ. eigenvalues --   -0.43155  -0.42841  -0.42626  -0.42282  -0.41305
 Alpha  occ. eigenvalues --   -0.40494  -0.39987  -0.39629  -0.39559  -0.39282
 Alpha  occ. eigenvalues --   -0.39182  -0.38813  -0.38617  -0.38585  -0.38484
 Alpha  occ. eigenvalues --   -0.38297  -0.35393  -0.34102  -0.33444  -0.32753
 Alpha  occ. eigenvalues --   -0.32147  -0.30909
 Alpha virt. eigenvalues --    0.02856   0.03250   0.03799   0.05355   0.06175
 Alpha virt. eigenvalues --    0.06242   0.06950   0.07358   0.07754   0.08321
 Alpha virt. eigenvalues --    0.08778   0.09466   0.09919   0.10105   0.10461
 Alpha virt. eigenvalues --    0.10831   0.11000   0.11525   0.11709   0.12177
 Alpha virt. eigenvalues --    0.12197   0.12710   0.12827   0.14060   0.14393
 Alpha virt. eigenvalues --    0.14589   0.15000   0.15323   0.15620   0.15843
 Alpha virt. eigenvalues --    0.16613   0.17451   0.17797   0.18056   0.18367
 Alpha virt. eigenvalues --    0.18598   0.18965   0.19103   0.19337   0.19983
 Alpha virt. eigenvalues --    0.20166   0.20560   0.20993   0.22526   0.23026
 Alpha virt. eigenvalues --    0.23610   0.23640   0.24556   0.25603   0.26370
 Alpha virt. eigenvalues --    0.26751   0.27006   0.27369   0.27934   0.28403
 Alpha virt. eigenvalues --    0.28986   0.29046   0.29498   0.29905   0.31018
 Alpha virt. eigenvalues --    0.31332   0.31890   0.32159   0.32334   0.32475
 Alpha virt. eigenvalues --    0.33653   0.34293   0.34482   0.34855   0.35170
 Alpha virt. eigenvalues --    0.35280   0.35597   0.36042   0.36429   0.36628
 Alpha virt. eigenvalues --    0.37005   0.37452   0.38242   0.38701   0.39061
 Alpha virt. eigenvalues --    0.39781   0.40026   0.41049   0.41339   0.41553
 Alpha virt. eigenvalues --    0.41916   0.42039   0.42353   0.42480   0.42987
 Alpha virt. eigenvalues --    0.43621   0.44323   0.44403   0.45026   0.45204
 Alpha virt. eigenvalues --    0.45458   0.45493   0.45828   0.46158   0.46569
 Alpha virt. eigenvalues --    0.46885   0.47283   0.47351   0.47731   0.47983
 Alpha virt. eigenvalues --    0.48299   0.48449   0.48761   0.48932   0.49238
 Alpha virt. eigenvalues --    0.49482   0.49662   0.49742   0.50090   0.50352
 Alpha virt. eigenvalues --    0.50659   0.50712   0.50800   0.51047   0.51455
 Alpha virt. eigenvalues --    0.51761   0.51993   0.52699   0.53089   0.53186
 Alpha virt. eigenvalues --    0.53419   0.53643   0.53924   0.54280   0.54464
 Alpha virt. eigenvalues --    0.55305   0.55368   0.56482   0.57075   0.57520
 Alpha virt. eigenvalues --    0.57808   0.58044   0.58618   0.59334   0.59756
 Alpha virt. eigenvalues --    0.60389   0.60978   0.61549   0.61855   0.62607
 Alpha virt. eigenvalues --    0.64125   0.64892   0.65311   0.65798   0.65977
 Alpha virt. eigenvalues --    0.66443   0.66797   0.67383   0.67883   0.69857
 Alpha virt. eigenvalues --    0.70630   0.70650   0.71249   0.72085   0.72388
 Alpha virt. eigenvalues --    0.72672   0.72991   0.73676   0.74082   0.75833
 Alpha virt. eigenvalues --    0.76599   0.76861   0.77424   0.78246   0.78708
 Alpha virt. eigenvalues --    0.78813   0.79906   0.80910   0.81427   0.82094
 Alpha virt. eigenvalues --    0.82606   0.82771   0.84245   0.84580   0.84787
 Alpha virt. eigenvalues --    0.85299   0.85531   0.86415   0.86627   0.87004
 Alpha virt. eigenvalues --    0.87648   0.88016   0.88226   0.89156   0.89681
 Alpha virt. eigenvalues --    0.89755   0.90548   0.90855   0.91143   0.91658
 Alpha virt. eigenvalues --    0.92582   0.92709   0.92837   0.93124   0.93434
 Alpha virt. eigenvalues --    0.93677   0.93867   0.94643   0.94885   0.95524
 Alpha virt. eigenvalues --    0.95798   0.95911   0.96424   0.96633   0.97103
 Alpha virt. eigenvalues --    0.97983   0.98466   0.98930   0.99118   0.99620
 Alpha virt. eigenvalues --    1.00165   1.00381   1.00911   1.01281   1.02072
 Alpha virt. eigenvalues --    1.02188   1.02545   1.03253   1.03642   1.04131
 Alpha virt. eigenvalues --    1.04719   1.05148   1.05571   1.05939   1.06210
 Alpha virt. eigenvalues --    1.06674   1.06908   1.07360   1.07829   1.08490
 Alpha virt. eigenvalues --    1.08623   1.08720   1.09754   1.10093   1.10420
 Alpha virt. eigenvalues --    1.11375   1.11658   1.12160   1.12497   1.12675
 Alpha virt. eigenvalues --    1.12914   1.13391   1.13621   1.13761   1.14308
 Alpha virt. eigenvalues --    1.14712   1.14843   1.15308   1.15512   1.15788
 Alpha virt. eigenvalues --    1.16117   1.16995   1.17273   1.17909   1.18036
 Alpha virt. eigenvalues --    1.18694   1.20078   1.20452   1.20858   1.21080
 Alpha virt. eigenvalues --    1.21595   1.21995   1.22285   1.22634   1.23038
 Alpha virt. eigenvalues --    1.23097   1.23494   1.23557   1.24208   1.25577
 Alpha virt. eigenvalues --    1.26002   1.26263   1.26727   1.27272   1.27746
 Alpha virt. eigenvalues --    1.27882   1.28589   1.30088   1.31258   1.31728
 Alpha virt. eigenvalues --    1.31915   1.32212   1.33196   1.33409   1.33837
 Alpha virt. eigenvalues --    1.34212   1.34521   1.34918   1.35634   1.36379
 Alpha virt. eigenvalues --    1.37593   1.38380   1.38606   1.39146   1.39660
 Alpha virt. eigenvalues --    1.39923   1.40074   1.40581   1.40804   1.41353
 Alpha virt. eigenvalues --    1.41923   1.42584   1.42974   1.44296   1.44404
 Alpha virt. eigenvalues --    1.44923   1.45871   1.46122   1.46392   1.46577
 Alpha virt. eigenvalues --    1.47018   1.47451   1.47997   1.48183   1.48611
 Alpha virt. eigenvalues --    1.48967   1.49462   1.49767   1.50184   1.50634
 Alpha virt. eigenvalues --    1.51394   1.51971   1.53175   1.53547   1.54263
 Alpha virt. eigenvalues --    1.55118   1.55326   1.55517   1.56959   1.57206
 Alpha virt. eigenvalues --    1.57498   1.57810   1.58242   1.59324   1.59494
 Alpha virt. eigenvalues --    1.59900   1.60943   1.64445   1.64672   1.66366
 Alpha virt. eigenvalues --    1.67286   1.67441   1.69100   1.69501   1.69658
 Alpha virt. eigenvalues --    1.70541   1.70840   1.71498   1.71860   1.73096
 Alpha virt. eigenvalues --    1.74589   1.75777   1.76507   1.77287   1.78448
 Alpha virt. eigenvalues --    1.78854   1.79096   1.79713   1.82570   1.82645
 Alpha virt. eigenvalues --    1.83131   1.84631   1.85901   1.87146   1.87818
 Alpha virt. eigenvalues --    1.88784   1.92375   1.92836   1.93696   1.94321
 Alpha virt. eigenvalues --    1.98021   1.98129   1.98574   1.98707   2.00239
 Alpha virt. eigenvalues --    2.01848   2.02675   2.03507   2.04065   2.04413
 Alpha virt. eigenvalues --    2.07899   2.08271   2.08554   2.14033   2.14217
 Alpha virt. eigenvalues --    2.14584   2.15444   2.15777   2.16179   2.16351
 Alpha virt. eigenvalues --    2.16939   2.17275   2.17997   2.18367   2.18729
 Alpha virt. eigenvalues --    2.20119   2.20504   2.21572   2.22278   2.24277
 Alpha virt. eigenvalues --    2.25371   2.25964   2.27393   2.29174   2.29482
 Alpha virt. eigenvalues --    2.29852   2.30761   2.31196   2.31809   2.32313
 Alpha virt. eigenvalues --    2.33853   2.34701   2.35230   2.36130   2.36952
 Alpha virt. eigenvalues --    2.37977   2.38483   2.39279   2.40702   2.41148
 Alpha virt. eigenvalues --    2.42047   2.43221   2.44475   2.45038   2.45621
 Alpha virt. eigenvalues --    2.45666   2.47177   2.47514   2.48228   2.48691
 Alpha virt. eigenvalues --    2.49060   2.50221   2.50731   2.51053   2.51868
 Alpha virt. eigenvalues --    2.52535   2.52954   2.53303   2.54234   2.54838
 Alpha virt. eigenvalues --    2.56220   2.56948   2.57484   2.57716   2.58669
 Alpha virt. eigenvalues --    2.59155   2.59751   2.61088   2.61528   2.61990
 Alpha virt. eigenvalues --    2.62567   2.62648   2.63458   2.63940   2.64249
 Alpha virt. eigenvalues --    2.64502   2.66013   2.66742   2.67466   2.68131
 Alpha virt. eigenvalues --    2.68306   2.68699   2.69034   2.69561   2.69753
 Alpha virt. eigenvalues --    2.69790   2.71013   2.71253   2.71767   2.72442
 Alpha virt. eigenvalues --    2.73454   2.73863   2.74663   2.75702   2.76232
 Alpha virt. eigenvalues --    2.76941   2.77334   2.78446   2.78522   2.81385
 Alpha virt. eigenvalues --    2.82716   2.82853   2.83378   2.83791   2.84241
 Alpha virt. eigenvalues --    2.85688   2.85864   2.87724   2.88031   2.88723
 Alpha virt. eigenvalues --    2.88888   2.89145   2.89903   2.90432   2.91735
 Alpha virt. eigenvalues --    2.92260   2.92293   2.92480   2.92928   2.93389
 Alpha virt. eigenvalues --    2.93982   2.95175   2.96128   2.96378   2.96801
 Alpha virt. eigenvalues --    2.97106   2.97422   2.98291   2.98741   2.98957
 Alpha virt. eigenvalues --    2.99390   3.00259   3.00642   3.01067   3.01656
 Alpha virt. eigenvalues --    3.03265   3.03722   3.04163   3.04226   3.04657
 Alpha virt. eigenvalues --    3.04764   3.05415   3.05718   3.06137   3.06292
 Alpha virt. eigenvalues --    3.06519   3.07265   3.07455   3.07680   3.07882
 Alpha virt. eigenvalues --    3.08568   3.09010   3.09133   3.09352   3.09657
 Alpha virt. eigenvalues --    3.09902   3.10696   3.10813   3.11955   3.12174
 Alpha virt. eigenvalues --    3.12962   3.13174   3.14046   3.14245   3.14493
 Alpha virt. eigenvalues --    3.15082   3.15269   3.15890   3.16240   3.16495
 Alpha virt. eigenvalues --    3.16670   3.17360   3.17706   3.17892   3.18141
 Alpha virt. eigenvalues --    3.18699   3.19064   3.19315   3.19459   3.19863
 Alpha virt. eigenvalues --    3.20577   3.22736   3.23168   3.23248   3.23349
 Alpha virt. eigenvalues --    3.23796   3.24086   3.24329   3.24689   3.24872
 Alpha virt. eigenvalues --    3.25029   3.25813   3.26101   3.26456   3.27361
 Alpha virt. eigenvalues --    3.27523   3.28458   3.28604   3.28703   3.29332
 Alpha virt. eigenvalues --    3.30561   3.31053   3.31425   3.33840   3.34279
 Alpha virt. eigenvalues --    3.34389   3.34522   3.35582   3.36108   3.36460
 Alpha virt. eigenvalues --    3.36510   3.37088   3.37765   3.37999   3.38996
 Alpha virt. eigenvalues --    3.39170   3.39768   3.40233   3.40486   3.40609
 Alpha virt. eigenvalues --    3.41128   3.41414   3.41815   3.42972   3.43537
 Alpha virt. eigenvalues --    3.43756   3.44962   3.45185   3.45368   3.45478
 Alpha virt. eigenvalues --    3.45918   3.46112   3.46757   3.47391   3.48343
 Alpha virt. eigenvalues --    3.50126   3.50419   3.50780   3.51139   3.51620
 Alpha virt. eigenvalues --    3.51928   3.52082   3.52672   3.53030   3.53282
 Alpha virt. eigenvalues --    3.53590   3.54234   3.54475   3.55250   3.56070
 Alpha virt. eigenvalues --    3.56790   3.56833   3.57152   3.57409   3.57902
 Alpha virt. eigenvalues --    3.57952   3.58515   3.58933   3.59054   3.60116
 Alpha virt. eigenvalues --    3.60214   3.60692   3.61552   3.63518   3.64118
 Alpha virt. eigenvalues --    3.64223   3.64631   3.66137   3.66253   3.66694
 Alpha virt. eigenvalues --    3.68085   3.68981   3.69139   3.69516   3.69790
 Alpha virt. eigenvalues --    3.71259   3.71400   3.71566   3.74000   3.74447
 Alpha virt. eigenvalues --    3.75032   3.75287   3.75502   3.79056   3.79353
 Alpha virt. eigenvalues --    3.79583   3.80508   3.80587   3.80772   3.80962
 Alpha virt. eigenvalues --    3.81274   3.81549   3.82481   3.82687   3.83203
 Alpha virt. eigenvalues --    3.87655   3.87774   3.88289   3.88989   3.90108
 Alpha virt. eigenvalues --    3.90455   3.90616   3.91128   3.91385   3.91531
 Alpha virt. eigenvalues --    3.91851   3.92610   3.94336   3.94435   3.95132
 Alpha virt. eigenvalues --    3.96472   3.96671   3.97079   3.98016   3.98850
 Alpha virt. eigenvalues --    3.99027   3.99515   3.99706   4.00595   4.01061
 Alpha virt. eigenvalues --    4.01449   4.01529   4.01791   4.02006   4.02551
 Alpha virt. eigenvalues --    4.02994   4.03123   4.03468   4.03984   4.04181
 Alpha virt. eigenvalues --    4.05335   4.06080   4.06336   4.06848   4.07594
 Alpha virt. eigenvalues --    4.08708   4.08897   4.09085   4.09705   4.10889
 Alpha virt. eigenvalues --    4.11179   4.12180   4.13246   4.14184   4.14348
 Alpha virt. eigenvalues --    4.14668   4.14693   4.15288   4.15374   4.15539
 Alpha virt. eigenvalues --    4.15632   4.15932   4.16126   4.16352   4.16489
 Alpha virt. eigenvalues --    4.16650   4.17719   4.18128   4.18692   4.18812
 Alpha virt. eigenvalues --    4.19122   4.19858   4.20084   4.21351   4.22393
 Alpha virt. eigenvalues --    4.22663   4.23454   4.24543   4.25008   4.25099
 Alpha virt. eigenvalues --    4.26163   4.28726   4.29581   4.30190   4.30523
 Alpha virt. eigenvalues --    4.30975   4.31257   4.32011   4.32610   4.32880
 Alpha virt. eigenvalues --    4.33048   4.33451   4.33846   4.34017   4.34585
 Alpha virt. eigenvalues --    4.35441   4.36171   4.37084   4.37633   4.38333
 Alpha virt. eigenvalues --    4.38660   4.40574   4.41231   4.41724   4.42333
 Alpha virt. eigenvalues --    4.42989   4.43596   4.44554   4.44867   4.45248
 Alpha virt. eigenvalues --    4.46330   4.46518   4.48989   4.53279   4.54191
 Alpha virt. eigenvalues --    4.54441   4.56684   4.58750   4.59036   4.59112
 Alpha virt. eigenvalues --    4.59423   4.66045   4.67634   4.68112   4.68611
 Alpha virt. eigenvalues --    4.70012   4.70736   4.71645   4.72164   4.76492
 Alpha virt. eigenvalues --    4.76616   4.77201   4.77321   4.80624   4.81048
 Alpha virt. eigenvalues --    4.81627   4.82375   4.83620   4.83851   4.84175
 Alpha virt. eigenvalues --    4.84255   4.87001   4.87039   4.87775   4.87843
 Alpha virt. eigenvalues --    4.88831   4.89158   4.89744   4.89940   4.90068
 Alpha virt. eigenvalues --    4.90199   4.90391   4.91779   4.93288   4.93685
 Alpha virt. eigenvalues --    4.94325   4.94384   4.97148   4.97214   4.97421
 Alpha virt. eigenvalues --    4.98131   4.98275   4.99072   4.99322   4.99595
 Alpha virt. eigenvalues --    5.08260   5.08370   5.08453   5.08812   5.09116
 Alpha virt. eigenvalues --    5.09472   5.09692   5.09889   5.16101   5.16249
 Alpha virt. eigenvalues --    5.16660   5.16841   5.17740   5.17971   5.18799
 Alpha virt. eigenvalues --    5.19163   5.19577   5.20290   5.20668   5.20717
 Alpha virt. eigenvalues --    5.20959   5.21183   5.21319   5.22003   5.22097
 Alpha virt. eigenvalues --    5.22314   5.22578   5.22854   5.23497   5.24489
 Alpha virt. eigenvalues --    5.25019   5.25922   5.26375   5.26679   5.26864
 Alpha virt. eigenvalues --    5.27429   5.30940   5.31391   5.31865   5.31937
 Alpha virt. eigenvalues --    5.32305   5.32516   5.32904   5.33507   5.34962
 Alpha virt. eigenvalues --    5.35309   5.35659   5.36007   5.36710   5.37462
 Alpha virt. eigenvalues --    5.37751   5.38988   5.39193   5.39681   5.40279
 Alpha virt. eigenvalues --    5.40334   5.41317   5.41349   5.41730   5.41887
 Alpha virt. eigenvalues --    5.44410   5.44853   5.45348   5.46294   5.50777
 Alpha virt. eigenvalues --    5.50981   5.51574   5.52097   5.52368   5.52825
 Alpha virt. eigenvalues --    5.53226   5.54464   5.56461   5.56555   5.57188
 Alpha virt. eigenvalues --    5.57629   5.60745   5.60923   5.61192   5.61737
 Alpha virt. eigenvalues --    5.64924   5.65241   5.65291   5.65937   5.70019
 Alpha virt. eigenvalues --    5.70350   5.70934   5.71639   5.74672   5.75143
 Alpha virt. eigenvalues --    5.76197   5.76646   5.77883   5.78281   5.78870
 Alpha virt. eigenvalues --    5.78967   5.84280   5.85255   5.85655   5.86099
 Alpha virt. eigenvalues --    5.88866   5.89513   5.89840   5.90083   5.93805
 Alpha virt. eigenvalues --    5.94259   5.94702   5.94842   5.95082   5.95608
 Alpha virt. eigenvalues --    5.95871   5.96280   5.96525   5.96989   5.97154
 Alpha virt. eigenvalues --    5.97284   5.98902   5.99228   5.99423   6.00715
 Alpha virt. eigenvalues --    6.07831   6.08151   6.08844   6.09621   6.14337
 Alpha virt. eigenvalues --    6.14509   6.14844   6.15442   6.19550   6.20047
 Alpha virt. eigenvalues --    6.20507   6.20955   6.21079   6.21237   6.21448
 Alpha virt. eigenvalues --    6.24928   6.26756   6.27345   6.28615   6.28660
 Alpha virt. eigenvalues --    6.33181   6.34612   6.34977   6.35798   6.40859
 Alpha virt. eigenvalues --    6.41538   6.42162   6.43141   6.44467   6.44562
 Alpha virt. eigenvalues --    6.45040   6.45481   6.45689   6.45821   6.46589
 Alpha virt. eigenvalues --    6.48483   6.73849   6.74189   6.74538   6.75081
 Alpha virt. eigenvalues --    6.75531   6.75735   6.76414   6.77007   6.79602
 Alpha virt. eigenvalues --    6.80346   6.80397   6.83287   6.84066   6.85000
 Alpha virt. eigenvalues --    6.85752   6.86418   6.88281   6.89049   6.90096
 Alpha virt. eigenvalues --    6.90352   6.91349   6.91732   6.92379   6.92855
 Alpha virt. eigenvalues --    6.93410   6.93732   6.94376   6.96311   6.99007
 Alpha virt. eigenvalues --    7.00283   7.00374   7.02014   7.03985   7.05272
 Alpha virt. eigenvalues --    7.10229   7.13711   7.18369   7.19100   7.19549
 Alpha virt. eigenvalues --    7.20468   7.28824   7.30587   7.31053   7.31291
 Alpha virt. eigenvalues --    7.34178   7.35011   7.35220   7.36727   7.44422
 Alpha virt. eigenvalues --    7.48704   7.48981   7.49718   7.54272   7.55729
 Alpha virt. eigenvalues --    7.55814   7.56613   7.58707   8.08018   9.60622
 Alpha virt. eigenvalues --    9.66962   9.72606  10.05420  10.74554  11.02380
 Alpha virt. eigenvalues --   11.04943  11.09722  11.14114  11.22991  11.24072
 Alpha virt. eigenvalues --   11.28497  11.37453  11.42179  11.43484  11.46908
 Alpha virt. eigenvalues --   11.53167  12.30918  12.31355  12.32459  12.36949
 Alpha virt. eigenvalues --   13.00225  13.10464  13.13463  13.19300  13.41956
 Alpha virt. eigenvalues --   13.43590  13.47641  13.49376
          Condensed to atoms (all electrons):
 Mulliken charges:
               1
     1  Pb   1.103458
     2  Cl  -0.607530
     3  Cl  -0.619273
     4  O   -0.384753
     5  C    0.384680
     6  O   -0.247023
     7  O   -0.229312
     8  C    0.071282
     9  C    0.014711
    10  C   -0.284746
    11  H    0.123922
    12  H    0.118332
    13  H    0.089091
    14  H    0.111028
    15  H    0.110791
    16  H    0.134369
    17  O   -0.392093
    18  C    0.384701
    19  O   -0.257524
    20  O   -0.225648
    21  C    0.070137
    22  C    0.013886
    23  C   -0.282996
    24  H    0.123199
    25  H    0.116768
    26  H    0.078177
    27  H    0.109090
    28  H    0.116858
    29  H    0.136107
    30  O   -0.419176
    31  C    0.396107
    32  O   -0.224407
    33  O   -0.218332
    34  C    0.070289
    35  C    0.013733
    36  C   -0.272985
    37  H    0.124558
    38  H    0.116965
    39  H    0.078327
    40  H    0.101897
    41  H    0.109351
    42  H    0.136427
    43  O   -0.449798
    44  C    0.480207
    45  O   -0.220120
    46  O   -0.228867
    47  C    0.065494
    48  C   -0.007263
    49  C   -0.274399
    50  H    0.130867
    51  H    0.136302
    52  H    0.106932
    53  H    0.114209
    54  H    0.117687
    55  H    0.136302
 Sum of Mulliken charges =  -0.00000
 Mulliken charges with hydrogens summed into heavy atoms:
               1
     1  Pb   1.103458
     2  Cl  -0.607530
     3  Cl  -0.619273
     4  O   -0.384753
     5  C    0.384680
     6  O   -0.247023
     7  O   -0.229312
     8  C    0.205651
     9  C    0.256965
    10  C    0.026164
    17  O   -0.392093
    18  C    0.384701
    19  O   -0.257524
    20  O   -0.225648
    21  C    0.206245
    22  C    0.253853
    23  C    0.021129
    30  O   -0.419176
    31  C    0.396107
    32  O   -0.224407
    33  O   -0.218332
    34  C    0.206716
    35  C    0.255255
    36  C    0.016591
    43  O   -0.449798
    44  C    0.480207
    45  O   -0.220120
    46  O   -0.228867
    47  C    0.201796
    48  C    0.259906
    49  C    0.064429
 Electronic spatial extent (au):  <R**2>=          16262.9620
 Charge=             -0.0000 electrons
 Dipole moment (field-independent basis, Debye):
    X=              3.7906    Y=              7.6074    Z=             -4.0505  Tot=              9.4153
 Quadrupole moment (field-independent basis, Debye-Ang):
   XX=            -65.6789   YY=           -157.8650   ZZ=           -220.3600
   XY=              5.2545   XZ=              4.8509   YZ=             -9.3830
 Traceless Quadrupole moment (field-independent basis, Debye-Ang):
   XX=             82.2891   YY=             -9.8970   ZZ=            -72.3920
   XY=              5.2545   XZ=              4.8509   YZ=             -9.3830
 Octapole moment (field-independent basis, Debye-Ang**2):
  XXX=             81.8307  YYY=            106.3943  ZZZ=            -66.8115  XYY=            -65.5595
  XXY=            -57.7726  XXZ=            -12.0578  XZZ=             -3.6811  YZZ=              3.5172
  YYZ=            -37.0104  XYZ=             43.4449
 Hexadecapole moment (field-independent basis, Debye-Ang**3):
 XXXX=          -8838.3005 YYYY=          -6594.6950 ZZZZ=          -1657.1219 XXXY=            198.6460
 XXXZ=            -47.5678 YYYX=           -122.5992 YYYZ=           -106.0117 ZZZX=             36.0075
 ZZZY=             -1.8763 XXYY=          -1818.5522 XXZZ=          -2307.7682 YYZZ=          -1462.2747
 XXYZ=            -35.6424 YYXZ=             40.1456 ZZXY=             17.6612
 N-N= 3.213127018318D+03 E-N=-1.007347833277D+04  KE= 1.528887922495D+03
 Unable to Open any file for archive entry.
 1\1\GINC-MPCL046\SP\RCAM-B3LYP TD-FC\Gen\C16H24Cl2O12Pb1\EDBA4025\12-N
 ov-2020\0\\# cam-b3lyp/gen pseudo=read TD=NStates=10 Geom=Check Guess=
 Read empiricaldispersion=gd3bj SCRF=(read)\\PbCl2_PC\\0,1\Pb,0.2020850
 069,-0.1463900649,0.2932925178\Cl,1.854774747,0.2297708568,-1.78571610
 16\Cl,-0.3681575004,-2.6133958083,-0.5991659768\O,0.2277572215,2.67994
 53202,0.039314535\C,1.3469959402,3.1232765243,0.2483473134\O,2.2369193
 346,2.5562235912,1.0939939069\O,1.8339000081,4.2399476298,-0.336716873
 \C,3.5359527619,3.2256715774,0.9338351527\C,3.1234816578,4.5462779444,
 0.2594121879\C,4.4626277188,2.3524817944,0.1099102196\H,2.9839701716,5
 .3766955372,0.9784144027\H,3.8104734773,4.8540676943,-0.548968846\H,4.
 0496352342,2.1958515057,-0.9063711508\H,4.5949591818,1.3621218992,0.58
 43252524\H,5.4527592757,2.843648299,0.0286176415\H,3.9246849426,3.3904
 464909,1.9555598181\O,-2.1057221062,-0.7984692885,1.9031735736\C,-3.03
 07442045,-1.3931425289,1.3746430889\O,-3.8983598477,-0.825291989,0.498
 202708\O,-3.3222387761,-2.6929584402,1.6018949593\C,-4.7133740797,-1.8
 814457997,-0.1155846833\C,-4.540971078,-3.0333059509,0.8905051548\C,-4
 .1954073622,-2.1661578393,-1.5133509667\H,-5.3665250205,-3.094820083,1
 .6258255993\H,-4.3913742108,-4.0139535132,0.4040314843\H,-3.1512656472
 ,-2.5376507578,-1.4735563031\H,-4.2230692423,-1.2453531393,-2.12693938
 76\H,-4.8360672412,-2.9308340171,-1.9959336403\H,-5.7514503452,-1.5011
 741894,-0.1302021654\O,2.435725616,-1.0411736442,1.5226376784\C,3.2743
 096426,-1.6606799187,0.8776152295\O,3.1039921958,-2.9148031688,0.42266
 27342\O,4.4854385286,-1.1539156714,0.5577154297\C,4.206830636,-3.24204
 88572,-0.4928934305\C,5.2604889751,-2.1857877946,-0.1111892971\C,3.706
 543427,-3.1604516551,-1.9228616821\H,6.0186537392,-2.5634905866,0.6013
 703546\H,5.7542087727,-1.7282508106,-0.9872091272\H,3.3770014366,-2.12
 88628385,-2.1619402304\H,2.8508065448,-3.8467722467,-2.0699351209\H,4.
 5189379982,-3.4561441705,-2.6160823498\H,4.534666484,-4.2635363861,-0.
 2263884112\O,-1.6033495404,0.4741811542,-1.3162557408\C,-2.5270717776,
 1.2098474507,-0.9648765155\O,-2.5869726657,1.8317834445,0.2171760001\O
 ,-3.5848144084,1.4643320935,-1.7546775758\C,-3.7342517132,2.7507137397
 ,0.2133298067\C,-4.5552199069,2.2242006538,-0.9776688918\C,-3.22766332
 82,4.1728593971,0.0710897326\H,-5.3633938605,1.5323966528,-0.674280887
 6\H,-4.9553834366,3.0259457774,-1.6229374157\H,-2.7161334734,4.3142031
 901,-0.9017924972\H,-2.5159652951,4.4117493081,0.8835819575\H,-4.08006
 70292,4.8779482847,0.1296536956\H,-4.2557075794,2.5908733471,1.1744631
 331\\Version=ES64L-G16RevC.01\State=1-A\HF=-1560.4279863\RMSD=5.068e-0
 9\PG=C01 [X(C16H24Cl2O12Pb1)]\\@
 The archive entry for this job was punched.


 ADVERTISING--  HE WHO HAS SOMETHING TO SELL AND GOES AND WHISPERS
                IN A WELL, IS NOT SO APT TO GET THE DOLLARS AS HE
                WHO CLIMBS A TREE AND HOLLERS.

                   -- FROM THE BACK OF A SUGAR PACKET
 Job cpu time:       0 days 23 hours 55 minutes 39.1 seconds.
 Elapsed time:       0 days  4 hours 47 minutes 10.2 seconds.
 File lengths (MBytes):  RWF=   7061 Int=      0 D2E=      0 Chk=    536 Scr=      1
 Normal termination of Gaussian 16 at Thu Nov 12 15:25:22 2020.
